Program Version,EnergyPlus, Version 9.4.0-998c4b761e, YMD=2021.01.11 18:35
1,5,Environment Title[],Latitude[deg],Longitude[deg],Time Zone[],Elevation[m]
2,8,Day of Simulation[],Month[],Day of Month[],DST Indicator[1=yes 0=no],Hour[],StartMinute[],EndMinute[],DayType
3,5,Cumulative Day of Simulation[],Month[],Day of Month[],DST Indicator[1=yes 0=no],DayType  ! When Daily Meters Requested
4,2,Cumulative Days of Simulation[],Month[]  ! When Monthly Meters Requested
5,1,Cumulative Days of Simulation[] ! When Run Period Meters Requested
6,1,Calendar Year of Simulation[] ! When Annual Meters Requested
1460,1,Heating:Electricity [J] !TimeStep
1384,1,Cooling:Electricity [J] !TimeStep
1533,1,Heating:NaturalGas [J] !TimeStep
61,1,Electricity:Facility [J] !Hourly
1177,1,ElectricityNet:Facility [J] !Hourly
1510,1,NaturalGas:Facility [J] !Hourly
End of Data Dictionary
1,RUNPERIOD 1,  32.58,-116.98,  -8.00, 159.00
2,1, 7, 1, 1, 1, 0.00,15.00,Sunday
1384,111375.52449624785
1460,0.0
1533,0.0
2,1, 7, 1, 1, 1,15.00,30.00,Sunday
1384,103567.98354583376
1460,0.0
1533,0.0
2,1, 7, 1, 1, 1,30.00,45.00,Sunday
1384,97886.06343881588
1460,0.0
1533,0.0
2,1, 7, 1, 1, 1,45.00,60.00,Sunday
1384,92314.18997581559
1460,0.0
1533,0.0
2,1, 7, 1, 1, 1, 0.00,60.00,Sunday
61,12511283.967637264
1177,12511283.967637267
1510,0.0
2,1, 7, 1, 1, 2, 0.00,15.00,Sunday
1384,91941.6336621801
1460,0.0
1533,0.0
2,1, 7, 1, 1, 2,15.00,30.00,Sunday
1384,91593.19387579413
1460,0.0
1533,0.0
2,1, 7, 1, 1, 2,30.00,45.00,Sunday
1384,91440.499012404
1460,0.0
1533,0.0
2,1, 7, 1, 1, 2,45.00,60.00,Sunday
1384,91282.21762430604
1460,0.0
1533,0.0
2,1, 7, 1, 1, 2, 0.00,60.00,Sunday
61,12471785.011574727
1177,12471785.01157473
1510,0.0
2,1, 7, 1, 1, 3, 0.00,15.00,Sunday
1384,92007.97165848693
1460,0.0
1533,0.0
2,1, 7, 1, 1, 3,15.00,30.00,Sunday
1384,92787.55237697179
1460,0.0
1533,0.0
2,1, 7, 1, 1, 3,30.00,45.00,Sunday
1384,93619.55975514405
1460,0.0
1533,0.0
2,1, 7, 1, 1, 3,45.00,60.00,Sunday
1384,94485.80636708351
1460,0.0
1533,0.0
2,1, 7, 1, 1, 3, 0.00,60.00,Sunday
61,12478428.357557733
1177,12478428.357557733
1510,0.0
2,1, 7, 1, 1, 4, 0.00,15.00,Sunday
1384,94322.38828689826
1460,0.0
1533,0.0
2,1, 7, 1, 1, 4,15.00,30.00,Sunday
1384,94121.01138759482
1460,0.0
1533,0.0
2,1, 7, 1, 1, 4,30.00,45.00,Sunday
1384,93823.5881052216
1460,0.0
1533,0.0
2,1, 7, 1, 1, 4,45.00,60.00,Sunday
1384,93554.60150761322
1460,0.0
1533,0.0
2,1, 7, 1, 1, 4, 0.00,60.00,Sunday
61,12481349.056687372
1177,12481349.056687374
1510,0.0
2,1, 7, 1, 1, 5, 0.00,15.00,Sunday
1384,92197.57697952452
1460,0.0
1533,0.0
2,1, 7, 1, 1, 5,15.00,30.00,Sunday
1384,90877.67504083898
1460,0.0
1533,0.0
2,1, 7, 1, 1, 5,30.00,45.00,Sunday
1384,89664.37708757073
1460,0.0
1533,0.0
2,1, 7, 1, 1, 5,45.00,60.00,Sunday
1384,89766.66116555417
1460,0.0
1533,0.0
2,1, 7, 1, 1, 5, 0.00,60.00,Sunday
61,12203604.90927892
1177,12203604.909278922
1510,0.0
2,1, 7, 1, 1, 6, 0.00,15.00,Sunday
1384,103573.4974468175
1460,0.0
1533,0.0
2,1, 7, 1, 1, 6,15.00,30.00,Sunday
1384,122981.51460228392
1460,0.0
1533,0.0
2,1, 7, 1, 1, 6,30.00,45.00,Sunday
1384,151796.10648039604
1460,0.0
1533,0.0
2,1, 7, 1, 1, 6,45.00,60.00,Sunday
1384,183529.33815800967
1460,0.0
1533,0.0
2,1, 7, 1, 1, 6, 0.00,60.00,Sunday
61,11547156.952583334
1177,11547156.952583334
1510,0.0
2,1, 7, 1, 1, 7, 0.00,15.00,Sunday
1384,233023.76902913946
1460,0.0
1533,0.0
2,1, 7, 1, 1, 7,15.00,30.00,Sunday
1384,286184.99121227508
1460,0.0
1533,0.0
2,1, 7, 1, 1, 7,30.00,45.00,Sunday
1384,333034.2835306369
1460,0.0
1533,0.0
2,1, 7, 1, 1, 7,45.00,60.00,Sunday
1384,386812.80588643599
1460,0.0
1533,0.0
2,1, 7, 1, 1, 7, 0.00,60.00,Sunday
61,12172321.794703674
1177,12172321.794703676
1510,0.0
2,1, 7, 1, 1, 8, 0.00,15.00,Sunday
1384,434870.26428548819
1460,0.0
1533,0.0
2,1, 7, 1, 1, 8,15.00,30.00,Sunday
1384,484678.87927659609
1460,0.0
1533,0.0
2,1, 7, 1, 1, 8,30.00,45.00,Sunday
1384,528058.7147958211
1460,0.0
1533,0.0
2,1, 7, 1, 1, 8,45.00,60.00,Sunday
1384,570272.2791606928
1460,0.0
1533,0.0
2,1, 7, 1, 1, 8, 0.00,60.00,Sunday
61,13050400.145250578
1177,13050400.14525058
1510,0.0
2,1, 7, 1, 1, 9, 0.00,15.00,Sunday
1384,632953.4387028476
1460,0.0
1533,0.0
2,1, 7, 1, 1, 9,15.00,30.00,Sunday
1384,695819.7194552646
1460,0.0
1533,0.0
2,1, 7, 1, 1, 9,30.00,45.00,Sunday
1384,758906.0634990478
1460,0.0
1533,0.0
2,1, 7, 1, 1, 9,45.00,60.00,Sunday
1384,821066.520188562
1460,0.0
1533,0.0
2,1, 7, 1, 1, 9, 0.00,60.00,Sunday
61,13948232.110792999
1177,13948232.110792997
1510,0.0
2,1, 7, 1, 1,10, 0.00,15.00,Sunday
1384,860257.2674781671
1460,0.0
1533,0.0
2,1, 7, 1, 1,10,15.00,30.00,Sunday
1384,897912.3951294359
1460,0.0
1533,0.0
2,1, 7, 1, 1,10,30.00,45.00,Sunday
1384,980767.2668467206
1460,0.0
1533,0.0
2,1, 7, 1, 1,10,45.00,60.00,Sunday
1384,1057070.863723624
1460,0.0
1533,0.0
2,1, 7, 1, 1,10, 0.00,60.00,Sunday
61,14840802.089625927
1177,14840802.089625927
1510,0.0
2,1, 7, 1, 1,11, 0.00,15.00,Sunday
1384,1086723.3418987885
1460,0.0
1533,0.0
2,1, 7, 1, 1,11,15.00,30.00,Sunday
1384,1115571.1421184708
1460,0.0
1533,0.0
2,1, 7, 1, 1,11,30.00,45.00,Sunday
1384,1148636.6271530856
1460,0.0
1533,0.0
2,1, 7, 1, 1,11,45.00,60.00,Sunday
1384,1189454.7531265356
1460,0.0
1533,0.0
2,1, 7, 1, 1,11, 0.00,60.00,Sunday
61,15559521.535530407
1177,15559521.535530407
1510,0.0
2,1, 7, 1, 1,12, 0.00,15.00,Sunday
1384,1206611.9268839937
1460,0.0
1533,0.0
2,1, 7, 1, 1,12,15.00,30.00,Sunday
1384,1224091.822314296
1460,0.0
1533,0.0
2,1, 7, 1, 1,12,30.00,45.00,Sunday
1384,1237691.596296362
1460,0.0
1533,0.0
2,1, 7, 1, 1,12,45.00,60.00,Sunday
1384,1249344.6439071794
1460,0.0
1533,0.0
2,1, 7, 1, 1,12, 0.00,60.00,Sunday
61,15894215.862928223
1177,15894215.862928223
1510,0.0
2,1, 7, 1, 1,13, 0.00,15.00,Sunday
1384,1259531.3331163545
1460,0.0
1533,0.0
2,1, 7, 1, 1,13,15.00,30.00,Sunday
1384,1269116.777018625
1460,0.0
1533,0.0
2,1, 7, 1, 1,13,30.00,45.00,Sunday
1384,1277627.7478649524
1460,0.0
1533,0.0
2,1, 7, 1, 1,13,45.00,60.00,Sunday
1384,1283774.6006692909
1460,0.0
1533,0.0
2,1, 7, 1, 1,13, 0.00,60.00,Sunday
61,16126788.818483334
1177,16126788.818483336
1510,0.0
2,1, 7, 1, 1,14, 0.00,15.00,Sunday
1384,1278665.1764822445
1460,0.0
1533,0.0
2,1, 7, 1, 1,14,15.00,30.00,Sunday
1384,1274609.7212427094
1460,0.0
1533,0.0
2,1, 7, 1, 1,14,30.00,45.00,Sunday
1384,1271640.6048785274
1460,0.0
1533,0.0
2,1, 7, 1, 1,14,45.00,60.00,Sunday
1384,1268685.1067528018
1460,0.0
1533,0.0
2,1, 7, 1, 1,14, 0.00,60.00,Sunday
61,16123901.507867787
1177,16123901.507867787
1510,0.0
2,1, 7, 1, 1,15, 0.00,15.00,Sunday
1384,1287877.3493048638
1460,0.0
1533,0.0
2,1, 7, 1, 1,15,15.00,30.00,Sunday
1384,1305904.8889353229
1460,0.0
1533,0.0
2,1, 7, 1, 1,15,30.00,45.00,Sunday
1384,1321817.3807970256
1460,0.0
1533,0.0
2,1, 7, 1, 1,15,45.00,60.00,Sunday
1384,1337036.7984278752
1460,0.0
1533,0.0
2,1, 7, 1, 1,15, 0.00,60.00,Sunday
61,16256687.96664458
1177,16256687.966644578
1510,0.0
2,1, 7, 1, 1,16, 0.00,15.00,Sunday
1384,1326524.41585952
1460,0.0
1533,0.0
2,1, 7, 1, 1,16,15.00,30.00,Sunday
1384,1311165.4471556233
1460,0.0
1533,0.0
2,1, 7, 1, 1,16,30.00,45.00,Sunday
1384,1291369.0336279264
1460,0.0
1533,0.0
2,1, 7, 1, 1,16,45.00,60.00,Sunday
1384,1269852.643035484
1460,0.0
1533,0.0
2,1, 7, 1, 1,16, 0.00,60.00,Sunday
61,16160529.588403618
1177,16160529.588403618
1510,0.0
2,1, 7, 1, 1,17, 0.00,15.00,Sunday
1384,1247885.6414527519
1460,0.0
1533,0.0
2,1, 7, 1, 1,17,15.00,30.00,Sunday
1384,1225067.5488606208
1460,0.0
1533,0.0
2,1, 7, 1, 1,17,30.00,45.00,Sunday
1384,1196888.8475990827
1460,0.0
1533,0.0
2,1, 7, 1, 1,17,45.00,60.00,Sunday
1384,1172443.6729810055
1460,0.0
1533,0.0
2,1, 7, 1, 1,17, 0.00,60.00,Sunday
61,15779489.049082373
1177,15779489.049082369
1510,0.0
2,1, 7, 1, 1,18, 0.00,15.00,Sunday
1384,1132952.89442256
1460,0.0
1533,0.0
2,1, 7, 1, 1,18,15.00,30.00,Sunday
1384,1091299.5567551819
1460,0.0
1533,0.0
2,1, 7, 1, 1,18,30.00,45.00,Sunday
1384,1032637.191586731
1460,0.0
1533,0.0
2,1, 7, 1, 1,18,45.00,60.00,Sunday
1384,966317.311912963
1460,0.0
1533,0.0
2,1, 7, 1, 1,18, 0.00,60.00,Sunday
61,15172697.008643328
1177,15172697.008643326
1510,0.0
2,1, 7, 1, 1,19, 0.00,15.00,Sunday
1384,908210.3531695204
1460,0.0
1533,0.0
2,1, 7, 1, 1,19,15.00,30.00,Sunday
1384,844229.9341734643
1460,0.0
1533,0.0
2,1, 7, 1, 1,19,30.00,45.00,Sunday
1384,777979.9072055364
1460,0.0
1533,0.0
2,1, 7, 1, 1,19,45.00,60.00,Sunday
1384,677456.3252280153
1460,0.0
1533,0.0
2,1, 7, 1, 1,19, 0.00,60.00,Sunday
61,14713112.795843896
1177,14713112.795843896
1510,0.0
2,1, 7, 1, 1,20, 0.00,15.00,Sunday
1384,607693.4124534123
1460,0.0
1533,0.0
2,1, 7, 1, 1,20,15.00,30.00,Sunday
1384,545117.0496258832
1460,0.0
1533,0.0
2,1, 7, 1, 1,20,30.00,45.00,Sunday
1384,484502.95178198066
1460,0.0
1533,0.0
2,1, 7, 1, 1,20,45.00,60.00,Sunday
1384,427042.24731844387
1460,0.0
1533,0.0
2,1, 7, 1, 1,20, 0.00,60.00,Sunday
61,14621623.928561071
1177,14621623.928561073
1510,0.0
2,1, 7, 1, 1,21, 0.00,15.00,Sunday
1384,398058.2469151618
1460,0.0
1533,0.0
2,1, 7, 1, 1,21,15.00,30.00,Sunday
1384,372298.26377476679
1460,0.0
1533,0.0
2,1, 7, 1, 1,21,30.00,45.00,Sunday
1384,349456.7991508621
1460,0.0
1533,0.0
2,1, 7, 1, 1,21,45.00,60.00,Sunday
1384,329017.1400209303
1460,0.0
1533,0.0
2,1, 7, 1, 1,21, 0.00,60.00,Sunday
61,13982700.424544564
1177,13982700.424544562
1510,0.0
2,1, 7, 1, 1,22, 0.00,15.00,Sunday
1384,294923.4763981142
1460,0.0
1533,0.0
2,1, 7, 1, 1,22,15.00,30.00,Sunday
1384,273152.9504916307
1460,0.0
1533,0.0
2,1, 7, 1, 1,22,30.00,45.00,Sunday
1384,251913.33938896878
1460,0.0
1533,0.0
2,1, 7, 1, 1,22,45.00,60.00,Sunday
1384,230908.47694491608
1460,0.0
1533,0.0
2,1, 7, 1, 1,22, 0.00,60.00,Sunday
61,13565902.498436794
1177,13565902.498436798
1510,0.0
2,1, 7, 1, 1,23, 0.00,15.00,Sunday
1384,225764.90368954864
1460,0.0
1533,0.0
2,1, 7, 1, 1,23,15.00,30.00,Sunday
1384,221469.43798332066
1460,0.0
1533,0.0
2,1, 7, 1, 1,23,30.00,45.00,Sunday
1384,218290.34833842447
1460,0.0
1533,0.0
2,1, 7, 1, 1,23,45.00,60.00,Sunday
1384,216146.26261060558
1460,0.0
1533,0.0
2,1, 7, 1, 1,23, 0.00,60.00,Sunday
61,13387026.921014825
1177,13387026.921014829
1510,0.0
2,1, 7, 1, 1,24, 0.00,15.00,Sunday
1384,455595.426481486
1460,0.0
1533,0.0
2,1, 7, 1, 1,24,15.00,30.00,Sunday
1384,619586.918745534
1460,0.0
1533,0.0
2,1, 7, 1, 1,24,30.00,45.00,Sunday
1384,584876.7301969719
1460,0.0
1533,0.0
2,1, 7, 1, 1,24,45.00,60.00,Sunday
1384,609626.1854330545
1460,0.0
1533,0.0
2,1, 7, 1, 1,24, 0.00,60.00,Sunday
61,17486100.203649187
1177,17486100.203649187
1510,0.0
2,2, 7, 2, 1, 1, 0.00,15.00,Monday
1384,412708.9683843588
1460,0.0
1533,0.0
2,2, 7, 2, 1, 1,15.00,30.00,Monday
1384,407196.38501308
1460,0.0
1533,0.0
2,2, 7, 2, 1, 1,30.00,45.00,Monday
1384,403077.8761947528
1460,0.0
1533,0.0
2,2, 7, 2, 1, 1,45.00,60.00,Monday
1384,400164.35954536907
1460,0.0
1533,0.0
2,2, 7, 2, 1, 1, 0.00,60.00,Monday
61,16835734.893296247
1177,16835734.893296247
1510,0.0
2,2, 7, 2, 1, 2, 0.00,15.00,Monday
1384,387764.13919013986
1460,0.0
1533,0.0
2,2, 7, 2, 1, 2,15.00,30.00,Monday
1384,375997.66413359969
1460,0.0
1533,0.0
2,2, 7, 2, 1, 2,30.00,45.00,Monday
1384,364346.47712670828
1460,0.0
1533,0.0
2,2, 7, 2, 1, 2,45.00,60.00,Monday
1384,352539.96643961218
1460,0.0
1533,0.0
2,2, 7, 2, 1, 2, 0.00,60.00,Monday
61,16685698.085027982
1177,16685698.085027982
1510,0.0
2,2, 7, 2, 1, 3, 0.00,15.00,Monday
1384,348536.868582513
1460,0.0
1533,0.0
2,2, 7, 2, 1, 3,15.00,30.00,Monday
1384,344581.2411375407
1460,0.0
1533,0.0
2,2, 7, 2, 1, 3,30.00,45.00,Monday
1384,340630.3874656408
1460,0.0
1533,0.0
2,2, 7, 2, 1, 3,45.00,60.00,Monday
1384,336708.79448803936
1460,0.0
1533,0.0
2,2, 7, 2, 1, 3, 0.00,60.00,Monday
61,16570423.923598906
1177,16570423.923598908
1510,0.0
2,2, 7, 2, 1, 4, 0.00,15.00,Monday
1384,339756.424368421
1460,0.0
1533,0.0
2,2, 7, 2, 1, 4,15.00,30.00,Monday
1384,342850.29793644868
1460,0.0
1533,0.0
2,2, 7, 2, 1, 4,30.00,45.00,Monday
1384,346075.2921802831
1460,0.0
1533,0.0
2,2, 7, 2, 1, 4,45.00,60.00,Monday
1384,349706.6822874569
1460,0.0
1533,0.0
2,2, 7, 2, 1, 4, 0.00,60.00,Monday
61,16579917.657558339
1177,16579917.657558339
1510,0.0
2,2, 7, 2, 1, 5, 0.00,15.00,Monday
1384,352183.736380635
1460,0.0
1533,0.0
2,2, 7, 2, 1, 5,15.00,30.00,Monday
1384,348935.75712353
1460,0.0
1533,0.0
2,2, 7, 2, 1, 5,30.00,45.00,Monday
1384,344639.8542575839
1460,0.0
1533,0.0
2,2, 7, 2, 1, 5,45.00,60.00,Monday
1384,354725.7304668597
1460,0.0
1533,0.0
2,2, 7, 2, 1, 5, 0.00,60.00,Monday
61,16976920.526090608
1177,16976920.526090608
1510,0.0
2,2, 7, 2, 1, 6, 0.00,15.00,Monday
1384,778473.1629405235
1460,0.0
1533,0.0
2,2, 7, 2, 1, 6,15.00,30.00,Monday
1384,790314.8179052561
1460,0.0
1533,0.0
2,2, 7, 2, 1, 6,30.00,45.00,Monday
1384,831872.277116769
1460,0.0
1533,0.0
2,2, 7, 2, 1, 6,45.00,60.00,Monday
1384,874147.4379231299
1460,0.0
1533,0.0
2,2, 7, 2, 1, 6, 0.00,60.00,Monday
61,19084042.031002467
1177,19084042.031002467
1510,0.0
2,2, 7, 2, 1, 7, 0.00,15.00,Monday
1384,762481.0111263795
1460,0.0
1533,0.0
2,2, 7, 2, 1, 7,15.00,30.00,Monday
1384,816827.9571759645
1460,0.0
1533,0.0
2,2, 7, 2, 1, 7,30.00,45.00,Monday
1384,855676.4203474912
1460,0.0
1533,0.0
2,2, 7, 2, 1, 7,45.00,60.00,Monday
1384,894111.2970972929
1460,0.0
1533,0.0
2,2, 7, 2, 1, 7, 0.00,60.00,Monday
61,20572252.833307819
1177,20572252.833307819
1510,0.0
2,2, 7, 2, 1, 8, 0.00,15.00,Monday
1384,1571191.619665203
1460,0.0
1533,0.0
2,2, 7, 2, 1, 8,15.00,30.00,Monday
1384,1651077.4159559648
1460,0.0
1533,0.0
2,2, 7, 2, 1, 8,30.00,45.00,Monday
1384,1711041.7903361256
1460,0.0
1533,0.0
2,2, 7, 2, 1, 8,45.00,60.00,Monday
1384,1773287.30621543
1460,0.0
1533,0.0
2,2, 7, 2, 1, 8, 0.00,60.00,Monday
61,34094566.858891729
1177,34094566.85889172
1510,0.0
2,2, 7, 2, 1, 9, 0.00,15.00,Monday
1384,1858711.9799605609
1460,0.0
1533,0.0
2,2, 7, 2, 1, 9,15.00,30.00,Monday
1384,1938126.7486916758
1460,0.0
1533,0.0
2,2, 7, 2, 1, 9,30.00,45.00,Monday
1384,2011206.7979800744
1460,0.0
1533,0.0
2,2, 7, 2, 1, 9,45.00,60.00,Monday
1384,2091937.074130694
1460,0.0
1533,0.0
2,2, 7, 2, 1, 9, 0.00,60.00,Monday
61,35286412.592172037
1177,35286412.59217204
1510,0.0
2,2, 7, 2, 1,10, 0.00,15.00,Monday
1384,2045492.6636594595
1460,0.0
1533,0.0
2,2, 7, 2, 1,10,15.00,30.00,Monday
1384,2057551.527279404
1460,0.0
1533,0.0
2,2, 7, 2, 1,10,30.00,45.00,Monday
1384,2067475.8913237546
1460,0.0
1533,0.0
2,2, 7, 2, 1,10,45.00,60.00,Monday
1384,2081168.5405079497
1460,0.0
1533,0.0
2,2, 7, 2, 1,10, 0.00,60.00,Monday
61,35115437.355277318
1177,35115437.35527731
1510,0.0
2,2, 7, 2, 1,11, 0.00,15.00,Monday
1384,2183185.45488153
1460,0.0
1533,0.0
2,2, 7, 2, 1,11,15.00,30.00,Monday
1384,2220599.5180625889
1460,0.0
1533,0.0
2,2, 7, 2, 1,11,30.00,45.00,Monday
1384,2257425.9186379036
1460,0.0
1533,0.0
2,2, 7, 2, 1,11,45.00,60.00,Monday
1384,2301507.424269623
1460,0.0
1533,0.0
2,2, 7, 2, 1,11, 0.00,60.00,Monday
61,36326894.71580598
1177,36326894.715805988
1510,0.0
2,2, 7, 2, 1,12, 0.00,15.00,Monday
1384,2059061.1181280928
1460,0.0
1533,0.0
2,2, 7, 2, 1,12,15.00,30.00,Monday
1384,2065384.1847529887
1460,0.0
1533,0.0
2,2, 7, 2, 1,12,30.00,45.00,Monday
1384,2072213.4569523438
1460,0.0
1533,0.0
2,2, 7, 2, 1,12,45.00,60.00,Monday
1384,2076185.9917607387
1460,0.0
1533,0.0
2,2, 7, 2, 1,12, 0.00,60.00,Monday
61,33589861.70826963
1177,33589861.70826964
1510,0.0
2,2, 7, 2, 1,13, 0.00,15.00,Monday
1384,2341122.970816281
1460,0.0
1533,0.0
2,2, 7, 2, 1,13,15.00,30.00,Monday
1384,2359970.4579171307
1460,0.0
1533,0.0
2,2, 7, 2, 1,13,30.00,45.00,Monday
1384,2375599.826920117
1460,0.0
1533,0.0
2,2, 7, 2, 1,13,45.00,60.00,Monday
1384,2391429.0230590158
1460,0.0
1533,0.0
2,2, 7, 2, 1,13, 0.00,60.00,Monday
61,36892658.30135642
1177,36892658.30135642
1510,0.0
2,2, 7, 2, 1,14, 0.00,15.00,Monday
1384,2333049.6129666625
1460,0.0
1533,0.0
2,2, 7, 2, 1,14,15.00,30.00,Monday
1384,2350134.8375564736
1460,0.0
1533,0.0
2,2, 7, 2, 1,14,30.00,45.00,Monday
1384,2365298.4766297067
1460,0.0
1533,0.0
2,2, 7, 2, 1,14,45.00,60.00,Monday
1384,2379513.4810296965
1460,0.0
1533,0.0
2,2, 7, 2, 1,14, 0.00,60.00,Monday
61,36164233.66185513
1177,36164233.66185513
1510,0.0
2,2, 7, 2, 1,15, 0.00,15.00,Monday
1384,2451588.779538935
1460,0.0
1533,0.0
2,2, 7, 2, 1,15,15.00,30.00,Monday
1384,2448466.123048595
1460,0.0
1533,0.0
2,2, 7, 2, 1,15,30.00,45.00,Monday
1384,2444751.9333527588
1460,0.0
1533,0.0
2,2, 7, 2, 1,15,45.00,60.00,Monday
1384,2440002.424565063
1460,0.0
1533,0.0
2,2, 7, 2, 1,15, 0.00,60.00,Monday
61,37102754.929888058
1177,37102754.929888058
1510,0.0
2,2, 7, 2, 1,16, 0.00,15.00,Monday
1384,2454364.109421742
1460,0.0
1533,0.0
2,2, 7, 2, 1,16,15.00,30.00,Monday
1384,2465575.8480507379
1460,0.0
1533,0.0
2,2, 7, 2, 1,16,30.00,45.00,Monday
1384,2472101.9699757376
1460,0.0
1533,0.0
2,2, 7, 2, 1,16,45.00,60.00,Monday
1384,2478784.3921858437
1460,0.0
1533,0.0
2,2, 7, 2, 1,16, 0.00,60.00,Monday
61,37107183.76805073
1177,37107183.76805072
1510,0.0
2,2, 7, 2, 1,17, 0.00,15.00,Monday
1384,1775311.4664987892
1460,0.0
1533,0.0
2,2, 7, 2, 1,17,15.00,30.00,Monday
1384,1730048.490891601
1460,0.0
1533,0.0
2,2, 7, 2, 1,17,30.00,45.00,Monday
1384,1672849.029437525
1460,0.0
1533,0.0
2,2, 7, 2, 1,17,45.00,60.00,Monday
1384,1606009.9195196136
1460,0.0
1533,0.0
2,2, 7, 2, 1,17, 0.00,60.00,Monday
61,25509766.03385521
1177,25509766.033855216
1510,0.0
2,2, 7, 2, 1,18, 0.00,15.00,Monday
1384,1256086.3589844702
1460,0.0
1533,0.0
2,2, 7, 2, 1,18,15.00,30.00,Monday
1384,1156785.116829815
1460,0.0
1533,0.0
2,2, 7, 2, 1,18,30.00,45.00,Monday
1384,1070619.3702874734
1460,0.0
1533,0.0
2,2, 7, 2, 1,18,45.00,60.00,Monday
1384,983061.5827240006
1460,0.0
1533,0.0
2,2, 7, 2, 1,18, 0.00,60.00,Monday
61,18358291.437314307
1177,18358291.43731431
1510,0.0
2,2, 7, 2, 1,19, 0.00,15.00,Monday
1384,872017.5934508918
1460,0.0
1533,0.0
2,2, 7, 2, 1,19,15.00,30.00,Monday
1384,781276.0605909205
1460,0.0
1533,0.0
2,2, 7, 2, 1,19,30.00,45.00,Monday
1384,692873.4373828003
1460,0.0
1533,0.0
2,2, 7, 2, 1,19,45.00,60.00,Monday
1384,600270.0133105323
1460,0.0
1533,0.0
2,2, 7, 2, 1,19, 0.00,60.00,Monday
61,16693758.188859575
1177,16693758.188859579
1510,0.0
2,2, 7, 2, 1,20, 0.00,15.00,Monday
1384,530941.0388036331
1460,0.0
1533,0.0
2,2, 7, 2, 1,20,15.00,30.00,Monday
1384,474372.54709507667
1460,0.0
1533,0.0
2,2, 7, 2, 1,20,30.00,45.00,Monday
1384,422304.4834645039
1460,0.0
1533,0.0
2,2, 7, 2, 1,20,45.00,60.00,Monday
1384,374759.7755121429
1460,0.0
1533,0.0
2,2, 7, 2, 1,20, 0.00,60.00,Monday
61,15603330.485517269
1177,15603330.48551727
1510,0.0
2,2, 7, 2, 1,21, 0.00,15.00,Monday
1384,345396.8763446719
1460,0.0
1533,0.0
2,2, 7, 2, 1,21,15.00,30.00,Monday
1384,320351.54614633976
1460,0.0
1533,0.0
2,2, 7, 2, 1,21,30.00,45.00,Monday
1384,298504.9937489966
1460,0.0
1533,0.0
2,2, 7, 2, 1,21,45.00,60.00,Monday
1384,279239.0123463471
1460,0.0
1533,0.0
2,2, 7, 2, 1,21, 0.00,60.00,Monday
61,15019685.785728611
1177,15019685.785728613
1510,0.0
2,2, 7, 2, 1,22, 0.00,15.00,Monday
1384,224257.52632037659
1460,0.0
1533,0.0
2,2, 7, 2, 1,22,15.00,30.00,Monday
1384,211866.89641003213
1460,0.0
1533,0.0
2,2, 7, 2, 1,22,30.00,45.00,Monday
1384,202540.54659045494
1460,0.0
1533,0.0
2,2, 7, 2, 1,22,45.00,60.00,Monday
1384,194781.6299903219
1460,0.0
1533,0.0
2,2, 7, 2, 1,22, 0.00,60.00,Monday
61,13703112.74320834
1177,13703112.74320834
1510,0.0
2,2, 7, 2, 1,23, 0.00,15.00,Monday
1384,171755.45860768407
1460,0.0
1533,0.0
2,2, 7, 2, 1,23,15.00,30.00,Monday
1384,175625.5930163302
1460,0.0
1533,0.0
2,2, 7, 2, 1,23,30.00,45.00,Monday
1384,180056.40078930179
1460,0.0
1533,0.0
2,2, 7, 2, 1,23,45.00,60.00,Monday
1384,185082.58622211743
1460,0.0
1533,0.0
2,2, 7, 2, 1,23, 0.00,60.00,Monday
61,13235298.322677788
1177,13235298.322677786
1510,0.0
2,2, 7, 2, 1,24, 0.00,15.00,Monday
1384,575444.1573964827
1460,0.0
1533,0.0
2,2, 7, 2, 1,24,15.00,30.00,Monday
1384,578691.3633846879
1460,0.0
1533,0.0
2,2, 7, 2, 1,24,30.00,45.00,Monday
1384,563180.1219402007
1460,0.0
1533,0.0
2,2, 7, 2, 1,24,45.00,60.00,Monday
1384,554947.57041989
1460,0.0
1533,0.0
2,2, 7, 2, 1,24, 0.00,60.00,Monday
61,17499879.08064642
1177,17499879.08064642
1510,0.0
2,3, 7, 3, 1, 1, 0.00,15.00,Tuesday
1384,361377.5283930644
1460,0.0
1533,0.0
2,3, 7, 3, 1, 1,15.00,30.00,Tuesday
1384,353618.40011250556
1460,0.0
1533,0.0
2,3, 7, 3, 1, 1,30.00,45.00,Tuesday
1384,346771.0014582616
1460,0.0
1533,0.0
2,3, 7, 3, 1, 1,45.00,60.00,Tuesday
1384,434424.7609751383
1460,0.0
1533,0.0
2,3, 7, 3, 1, 1, 0.00,60.00,Tuesday
61,16715294.189729093
1177,16715294.189729095
1510,0.0
2,3, 7, 3, 1, 2, 0.00,15.00,Tuesday
1384,437761.22113313208
1460,0.0
1533,0.0
2,3, 7, 3, 1, 2,15.00,30.00,Tuesday
1384,437000.03837203807
1460,0.0
1533,0.0
2,3, 7, 3, 1, 2,30.00,45.00,Tuesday
1384,436702.62159719868
1460,0.0
1533,0.0
2,3, 7, 3, 1, 2,45.00,60.00,Tuesday
1384,437006.6342007921
1460,0.0
1533,0.0
2,3, 7, 3, 1, 2, 0.00,60.00,Tuesday
61,16966595.03114714
1177,16966595.03114714
1510,0.0
2,3, 7, 3, 1, 3, 0.00,15.00,Tuesday
1384,423295.5500117603
1460,0.0
1533,0.0
2,3, 7, 3, 1, 3,15.00,30.00,Tuesday
1384,410620.9199733818
1460,0.0
1533,0.0
2,3, 7, 3, 1, 3,30.00,45.00,Tuesday
1384,398076.88478194296
1460,0.0
1533,0.0
2,3, 7, 3, 1, 3,45.00,60.00,Tuesday
1384,385808.8097653389
1460,0.0
1533,0.0
2,3, 7, 3, 1, 3, 0.00,60.00,Tuesday
61,16829645.754147516
1177,16829645.754147516
1510,0.0
2,3, 7, 3, 1, 4, 0.00,15.00,Tuesday
1384,380345.1075378346
1460,0.0
1533,0.0
2,3, 7, 3, 1, 4,15.00,30.00,Tuesday
1384,374972.3514373957
1460,0.0
1533,0.0
2,3, 7, 3, 1, 4,30.00,45.00,Tuesday
1384,369731.89084397707
1460,0.0
1533,0.0
2,3, 7, 3, 1, 4,45.00,60.00,Tuesday
1384,364623.4147684849
1460,0.0
1533,0.0
2,3, 7, 3, 1, 4, 0.00,60.00,Tuesday
61,16695113.34358305
1177,16695113.343583052
1510,0.0
2,3, 7, 3, 1, 5, 0.00,15.00,Tuesday
1384,373449.88737452149
1460,0.0
1533,0.0
2,3, 7, 3, 1, 5,15.00,30.00,Tuesday
1384,377297.7394628752
1460,0.0
1533,0.0
2,3, 7, 3, 1, 5,30.00,45.00,Tuesday
1384,380568.5806659512
1460,0.0
1533,0.0
2,3, 7, 3, 1, 5,45.00,60.00,Tuesday
1384,393260.41403624988
1460,0.0
1533,0.0
2,3, 7, 3, 1, 5, 0.00,60.00,Tuesday
61,17106986.854733528
1177,17106986.854733528
1510,0.0
2,3, 7, 3, 1, 6, 0.00,15.00,Tuesday
1384,815711.7108764742
1460,0.0
1533,0.0
2,3, 7, 3, 1, 6,15.00,30.00,Tuesday
1384,846152.1517496905
1460,0.0
1533,0.0
2,3, 7, 3, 1, 6,30.00,45.00,Tuesday
1384,882474.2261467706
1460,0.0
1533,0.0
2,3, 7, 3, 1, 6,45.00,60.00,Tuesday
1384,917879.2907232703
1460,0.0
1533,0.0
2,3, 7, 3, 1, 6, 0.00,60.00,Tuesday
61,19324076.29912804
1177,19324076.29912804
1510,0.0
2,3, 7, 3, 1, 7, 0.00,15.00,Tuesday
1384,739293.6948173759
1460,0.0
1533,0.0
2,3, 7, 3, 1, 7,15.00,30.00,Tuesday
1384,754879.1341262022
1460,0.0
1533,0.0
2,3, 7, 3, 1, 7,30.00,45.00,Tuesday
1384,781177.1865264205
1460,0.0
1533,0.0
2,3, 7, 3, 1, 7,45.00,60.00,Tuesday
1384,809704.2961927864
1460,0.0
1533,0.0
2,3, 7, 3, 1, 7, 0.00,60.00,Tuesday
61,20497780.44146886
1177,20497780.44146886
1510,0.0
2,3, 7, 3, 1, 8, 0.00,15.00,Tuesday
1384,1493157.0103868165
1460,0.0
1533,0.0
2,3, 7, 3, 1, 8,15.00,30.00,Tuesday
1384,1564272.2893906655
1460,0.0
1533,0.0
2,3, 7, 3, 1, 8,30.00,45.00,Tuesday
1384,1624326.4921034789
1460,0.0
1533,0.0
2,3, 7, 3, 1, 8,45.00,60.00,Tuesday
1384,1689975.2888399019
1460,0.0
1533,0.0
2,3, 7, 3, 1, 8, 0.00,60.00,Tuesday
61,33434958.91925392
1177,33434958.91925392
1510,0.0
2,3, 7, 3, 1, 9, 0.00,15.00,Tuesday
1384,1766045.200118606
1460,0.0
1533,0.0
2,3, 7, 3, 1, 9,15.00,30.00,Tuesday
1384,1844051.610593714
1460,0.0
1533,0.0
2,3, 7, 3, 1, 9,30.00,45.00,Tuesday
1384,1910278.8150101724
1460,0.0
1533,0.0
2,3, 7, 3, 1, 9,45.00,60.00,Tuesday
1384,1971609.8665322406
1460,0.0
1533,0.0
2,3, 7, 3, 1, 9, 0.00,60.00,Tuesday
61,34529359.474044349
1177,34529359.474044349
1510,0.0
2,3, 7, 3, 1,10, 0.00,15.00,Tuesday
1384,1949068.3530690196
1460,0.0
1533,0.0
2,3, 7, 3, 1,10,15.00,30.00,Tuesday
1384,1990476.600678572
1460,0.0
1533,0.0
2,3, 7, 3, 1,10,30.00,45.00,Tuesday
1384,2031859.8089565193
1460,0.0
1533,0.0
2,3, 7, 3, 1,10,45.00,60.00,Tuesday
1384,2066883.1249298414
1460,0.0
1533,0.0
2,3, 7, 3, 1,10, 0.00,60.00,Tuesday
61,34830351.24190739
1177,34830351.24190739
1510,0.0
2,3, 7, 3, 1,11, 0.00,15.00,Tuesday
1384,2180113.3019237464
1460,0.0
1533,0.0
2,3, 7, 3, 1,11,15.00,30.00,Tuesday
1384,2222311.892688787
1460,0.0
1533,0.0
2,3, 7, 3, 1,11,30.00,45.00,Tuesday
1384,2263054.9479288544
1460,0.0
1533,0.0
2,3, 7, 3, 1,11,45.00,60.00,Tuesday
1384,2308915.1042650609
1460,0.0
1533,0.0
2,3, 7, 3, 1,11, 0.00,60.00,Tuesday
61,36420442.56229128
1177,36420442.56229128
1510,0.0
2,3, 7, 3, 1,12, 0.00,15.00,Tuesday
1384,2095643.2494788368
1460,0.0
1533,0.0
2,3, 7, 3, 1,12,15.00,30.00,Tuesday
1384,2131307.2436471765
1460,0.0
1533,0.0
2,3, 7, 3, 1,12,30.00,45.00,Tuesday
1384,2169755.8558636417
1460,0.0
1533,0.0
2,3, 7, 3, 1,12,45.00,60.00,Tuesday
1384,2211049.4003189529
1460,0.0
1533,0.0
2,3, 7, 3, 1,12, 0.00,60.00,Tuesday
61,33996228.50196503
1177,33996228.50196504
1510,0.0
2,3, 7, 3, 1,13, 0.00,15.00,Tuesday
1384,2411350.360503222
1460,0.0
1533,0.0
2,3, 7, 3, 1,13,15.00,30.00,Tuesday
1384,2387463.6182705156
1460,0.0
1533,0.0
2,3, 7, 3, 1,13,30.00,45.00,Tuesday
1384,2358116.6224167288
1460,0.0
1533,0.0
2,3, 7, 3, 1,13,45.00,60.00,Tuesday
1384,2326252.047655921
1460,0.0
1533,0.0
2,3, 7, 3, 1,13, 0.00,60.00,Tuesday
61,36974997.22809982
1177,36974997.22809982
1510,0.0
2,3, 7, 3, 1,14, 0.00,15.00,Tuesday
1384,2268087.350249124
1460,0.0
1533,0.0
2,3, 7, 3, 1,14,15.00,30.00,Tuesday
1384,2281886.0207801766
1460,0.0
1533,0.0
2,3, 7, 3, 1,14,30.00,45.00,Tuesday
1384,2294158.6521997458
1460,0.0
1533,0.0
2,3, 7, 3, 1,14,45.00,60.00,Tuesday
1384,2306223.11608104
1460,0.0
1533,0.0
2,3, 7, 3, 1,14, 0.00,60.00,Tuesday
61,35941871.65453642
1177,35941871.65453642
1510,0.0
2,3, 7, 3, 1,15, 0.00,15.00,Tuesday
1384,2396177.7287839564
1460,0.0
1533,0.0
2,3, 7, 3, 1,15,15.00,30.00,Tuesday
1384,2416262.205961106
1460,0.0
1533,0.0
2,3, 7, 3, 1,15,30.00,45.00,Tuesday
1384,2434010.912001869
1460,0.0
1533,0.0
2,3, 7, 3, 1,15,45.00,60.00,Tuesday
1384,2450878.5625488397
1460,0.0
1533,0.0
2,3, 7, 3, 1,15, 0.00,60.00,Tuesday
61,37002143.68195147
1177,37002143.68195146
1510,0.0
2,3, 7, 3, 1,16, 0.00,15.00,Tuesday
1384,2440771.991176499
1460,0.0
1533,0.0
2,3, 7, 3, 1,16,15.00,30.00,Tuesday
1384,2429237.2409756539
1460,0.0
1533,0.0
2,3, 7, 3, 1,16,30.00,45.00,Tuesday
1384,2416292.2337827587
1460,0.0
1533,0.0
2,3, 7, 3, 1,16,45.00,60.00,Tuesday
1384,2403980.434784881
1460,0.0
1533,0.0
2,3, 7, 3, 1,16, 0.00,60.00,Tuesday
61,36837994.14655368
1177,36837994.14655368
1510,0.0
2,3, 7, 3, 1,17, 0.00,15.00,Tuesday
1384,1702450.850913087
1460,0.0
1533,0.0
2,3, 7, 3, 1,17,15.00,30.00,Tuesday
1384,1687362.489848773
1460,0.0
1533,0.0
2,3, 7, 3, 1,17,30.00,45.00,Tuesday
1384,1667814.7019403228
1460,0.0
1533,0.0
2,3, 7, 3, 1,17,45.00,60.00,Tuesday
1384,1651492.0803389666
1460,0.0
1533,0.0
2,3, 7, 3, 1,17, 0.00,60.00,Tuesday
61,25499420.707953413
1177,25499420.707953417
1510,0.0
2,3, 7, 3, 1,18, 0.00,15.00,Tuesday
1384,1339516.5314992425
1460,0.0
1533,0.0
2,3, 7, 3, 1,18,15.00,30.00,Tuesday
1384,1280756.803097466
1460,0.0
1533,0.0
2,3, 7, 3, 1,18,30.00,45.00,Tuesday
1384,1213274.393241014
1460,0.0
1533,0.0
2,3, 7, 3, 1,18,45.00,60.00,Tuesday
1384,1140157.1601378266
1460,0.0
1533,0.0
2,3, 7, 3, 1,18, 0.00,60.00,Tuesday
61,18654292.671346386
1177,18654292.671346394
1510,0.0
2,3, 7, 3, 1,19, 0.00,15.00,Tuesday
1384,1028557.951453195
1460,0.0
1533,0.0
2,3, 7, 3, 1,19,15.00,30.00,Tuesday
1384,943641.0244980758
1460,0.0
1533,0.0
2,3, 7, 3, 1,19,30.00,45.00,Tuesday
1384,856289.686855802
1460,0.0
1533,0.0
2,3, 7, 3, 1,19,45.00,60.00,Tuesday
1384,736713.8427867728
1460,0.0
1533,0.0
2,3, 7, 3, 1,19, 0.00,60.00,Tuesday
61,17265960.014410039
1177,17265960.01441004
1510,0.0
2,3, 7, 3, 1,20, 0.00,15.00,Tuesday
1384,676316.9039965238
1460,0.0
1533,0.0
2,3, 7, 3, 1,20,15.00,30.00,Tuesday
1384,630193.87058252
1460,0.0
1533,0.0
2,3, 7, 3, 1,20,30.00,45.00,Tuesday
1384,589337.6638665791
1460,0.0
1533,0.0
2,3, 7, 3, 1,20,45.00,60.00,Tuesday
1384,553442.6859771469
1460,0.0
1533,0.0
2,3, 7, 3, 1,20, 0.00,60.00,Tuesday
61,16252817.134478394
1177,16252817.134478394
1510,0.0
2,3, 7, 3, 1,21, 0.00,15.00,Tuesday
1384,521972.93407991577
1460,0.0
1533,0.0
2,3, 7, 3, 1,21,15.00,30.00,Tuesday
1384,494836.82841967247
1460,0.0
1533,0.0
2,3, 7, 3, 1,21,30.00,45.00,Tuesday
1384,470862.1082446475
1460,0.0
1533,0.0
2,3, 7, 3, 1,21,45.00,60.00,Tuesday
1384,450059.43168029576
1460,0.0
1533,0.0
2,3, 7, 3, 1,21, 0.00,60.00,Tuesday
61,15721936.446298033
1177,15721936.446298033
1510,0.0
2,3, 7, 3, 1,22, 0.00,15.00,Tuesday
1384,390408.1178016152
1460,0.0
1533,0.0
2,3, 7, 3, 1,22,15.00,30.00,Tuesday
1384,366893.0256812521
1460,0.0
1533,0.0
2,3, 7, 3, 1,22,30.00,45.00,Tuesday
1384,346325.6928196965
1460,0.0
1533,0.0
2,3, 7, 3, 1,22,45.00,60.00,Tuesday
1384,325743.8209372383
1460,0.0
1533,0.0
2,3, 7, 3, 1,22, 0.00,60.00,Tuesday
61,14306332.789087233
1177,14306332.789087233
1510,0.0
2,3, 7, 3, 1,23, 0.00,15.00,Tuesday
1384,279912.288964019
1460,0.0
1533,0.0
2,3, 7, 3, 1,23,15.00,30.00,Tuesday
1384,283916.62174221218
1460,0.0
1533,0.0
2,3, 7, 3, 1,23,30.00,45.00,Tuesday
1384,289878.3882684796
1460,0.0
1533,0.0
2,3, 7, 3, 1,23,45.00,60.00,Tuesday
1384,298208.10776566437
1460,0.0
1533,0.0
2,3, 7, 3, 1,23, 0.00,60.00,Tuesday
61,13677301.426994019
1177,13677301.426994019
1510,0.0
2,3, 7, 3, 1,24, 0.00,15.00,Tuesday
1384,269462.1746467906
1460,0.0
1533,0.0
2,3, 7, 3, 1,24,15.00,30.00,Tuesday
1384,242335.74119473413
1460,0.0
1533,0.0
2,3, 7, 3, 1,24,30.00,45.00,Tuesday
1384,216266.9562585822
1460,0.0
1533,0.0
2,3, 7, 3, 1,24,45.00,60.00,Tuesday
1384,190822.18558065844
1460,0.0
1533,0.0
2,3, 7, 3, 1,24, 0.00,60.00,Tuesday
61,13045681.33731864
1177,13045681.337318642
1510,0.0
2,4, 7, 4, 1, 1, 0.00,15.00,Holiday
1384,183736.94731835236
1460,0.0
1533,0.0
2,4, 7, 4, 1, 1,15.00,30.00,Holiday
1384,178396.24568840068
1460,0.0
1533,0.0
2,4, 7, 4, 1, 1,30.00,45.00,Holiday
1384,172165.17648121838
1460,0.0
1533,0.0
2,4, 7, 4, 1, 1,45.00,60.00,Holiday
1384,263044.17257010345
1460,0.0
1533,0.0
2,4, 7, 4, 1, 1, 0.00,60.00,Holiday
61,12917094.352655191
1177,12917094.352655193
1510,0.0
2,4, 7, 4, 1, 2, 0.00,15.00,Holiday
1384,266058.84799425469
1460,0.0
1533,0.0
2,4, 7, 4, 1, 2,15.00,30.00,Holiday
1384,266959.2214490775