Program Version,EnergyPlus, Version 9.4.0-998c4b761e, YMD=2021.01.11 18:35
1,5,Environment Title[],Latitude[deg],Longitude[deg],Time Zone[],Elevation[m]
2,8,Day of Simulation[],Month[],Day of Month[],DST Indicator[1=yes 0=no],Hour[],StartMinute[],EndMinute[],DayType
3,5,Cumulative Day of Simulation[],Month[],Day of Month[],DST Indicator[1=yes 0=no],DayType  ! When Daily Report Variables Requested
4,2,Cumulative Days of Simulation[],Month[]  ! When Monthly Report Variables Requested
5,1,Cumulative Days of Simulation[] ! When Run Period Report Variables Requested
6,1,Calendar Year of Simulation[] ! When Annual Report Variables Requested
7,1,Environment,Site Outdoor Air Drybulb Temperature [C] !TimeStep
34,1,CORE_ZN,People Occupant Count [] !TimeStep
37,1,CORE_ZN,Zone People Occupant Count [] !TimeStep
39,1,PERIMETER_ZN_1,People Occupant Count [] !TimeStep
42,1,PERIMETER_ZN_1,Zone People Occupant Count [] !TimeStep
44,1,PERIMETER_ZN_2,People Occupant Count [] !TimeStep
47,1,PERIMETER_ZN_2,Zone People Occupant Count [] !TimeStep
49,1,PERIMETER_ZN_3,People Occupant Count [] !TimeStep
52,1,PERIMETER_ZN_3,Zone People Occupant Count [] !TimeStep
54,1,PERIMETER_ZN_4,People Occupant Count [] !TimeStep
57,1,PERIMETER_ZN_4,Zone People Occupant Count [] !TimeStep
735,1,CORE_ZN,Zone Mean Air Temperature [C] !TimeStep
736,1,PERIMETER_ZN_1,Zone Mean Air Temperature [C] !TimeStep
737,1,PERIMETER_ZN_2,Zone Mean Air Temperature [C] !TimeStep
738,1,PERIMETER_ZN_3,Zone Mean Air Temperature [C] !TimeStep
739,1,PERIMETER_ZN_4,Zone Mean Air Temperature [C] !TimeStep
740,1,ATTIC,Zone Mean Air Temperature [C] !TimeStep
865,1,CORE_ZN,Zone Thermostat Cooling Setpoint Temperature [C] !TimeStep
906,1,PERIMETER_ZN_1,Zone Thermostat Cooling Setpoint Temperature [C] !TimeStep
947,1,PERIMETER_ZN_2,Zone Thermostat Cooling Setpoint Temperature [C] !TimeStep
988,1,PERIMETER_ZN_3,Zone Thermostat Cooling Setpoint Temperature [C] !TimeStep
1029,1,PERIMETER_ZN_4,Zone Thermostat Cooling Setpoint Temperature [C] !TimeStep
1070,1,ATTIC,Zone Thermostat Cooling Setpoint Temperature [C] !TimeStep
1272,1,HTGSETP_SCH,Schedule Value [] !TimeStep
1273,1,CLGSETP_SCH,Schedule Value [] !TimeStep
1353,1,PSZ-AC:1 HEAT PUMP DX COOLING COIL,Cooling Coil Total Cooling Energy [J] !TimeStep
1410,1,PSZ-AC:2 HEAT PUMP DX COOLING COIL,Cooling Coil Total Cooling Energy [J] !TimeStep
1419,1,PSZ-AC:3 HEAT PUMP DX COOLING COIL,Cooling Coil Total Cooling Energy [J] !TimeStep
1428,1,PSZ-AC:4 HEAT PUMP DX COOLING COIL,Cooling Coil Total Cooling Energy [J] !TimeStep
1437,1,PSZ-AC:5 HEAT PUMP DX COOLING COIL,Cooling Coil Total Cooling Energy [J] !TimeStep
1903,1,PSZ-AC:1,Air System Total Cooling Energy [J] !TimeStep
1911,1,PSZ-AC:1,Air System Cooling Coil Total Cooling Energy [J] !TimeStep
1929,1,PSZ-AC:2,Air System Total Cooling Energy [J] !TimeStep
1937,1,PSZ-AC:2,Air System Cooling Coil Total Cooling Energy [J] !TimeStep
1955,1,PSZ-AC:3,Air System Total Cooling Energy [J] !TimeStep
1963,1,PSZ-AC:3,Air System Cooling Coil Total Cooling Energy [J] !TimeStep
1981,1,PSZ-AC:4,Air System Total Cooling Energy [J] !TimeStep
1989,1,PSZ-AC:4,Air System Cooling Coil Total Cooling Energy [J] !TimeStep
2007,1,PSZ-AC:5,Air System Total Cooling Energy [J] !TimeStep
2015,1,PSZ-AC:5,Air System Cooling Coil Total Cooling Energy [J] !TimeStep
2078,1,Averaged Building Temperature,PythonPlugin:OutputVariable [C] !TimeStep
1460,1,Heating:Electricity [J] !TimeStep
1384,1,Cooling:Electricity [J] !TimeStep
1533,1,Heating:NaturalGas [J] !TimeStep
End of Data Dictionary
1,RUNPERIOD 1,  32.58,-116.98,  -8.00, 159.00
2,1, 7, 1, 1, 1, 0.00,15.00,Sunday
7,16.9
34,0.0
37,0.0
39,0.0
42,0.0
44,0.0
47,0.0
49,0.0
52,0.0
54,0.0
57,0.0
735,22.99999836269126
736,22.78027578707667
737,23.000000246462496
738,22.794300062891439
739,22.999998292308847
740,13.196617959704584
1272,15.6
1273,23.0
2078,17.0
865,23.0
906,23.0
947,23.0
988,23.0
1029,23.0
1070,0.0
1353,280074.79321024697
1410,0.0
1419,7762.386882217776
1428,0.0
1437,199643.3753248528
1903,280074.79321024697
1911,280074.79321024697
1929,0.0
1937,0.0
1955,7762.386882217776
1963,7762.386882217776
1981,0.0
1989,0.0
2007,199643.3753248528
2015,199643.3753248528
1384,111375.52449624785
1460,0.0
1533,0.0
2,1, 7, 1, 1, 1,15.00,30.00,Sunday
7,16.8
34,0.0
37,0.0
39,0.0
42,0.0
44,0.0
47,0.0
49,0.0
52,0.0
54,0.0
57,0.0
735,22.999989740491249
736,22.76602464033605
737,22.999282723184998
738,22.774683709838976
739,22.99999725095343
740,13.676948559216874
1272,15.6
1273,23.0
2078,17.0
865,23.0
906,23.0
947,23.0
988,23.0
1029,23.0
1070,0.0
1353,269749.03758601497
1410,0.0
1419,0.0
1428,0.0
1437,183490.98403962703
1903,269749.03758601497
1911,269749.03758601497
1929,0.0
1937,0.0
1955,0.0
1963,0.0
1981,0.0
1989,0.0
2007,183490.98403962703
2015,183490.98403962703
1384,103567.98354583376
1460,0.0
1533,0.0
2,1, 7, 1, 1, 1,30.00,45.00,Sunday
7,16.700000000000004
34,0.0
37,0.0
39,0.0
42,0.0
44,0.0
47,0.0
49,0.0
52,0.0
54,0.0
57,0.0
735,22.999988134133063
736,22.74351004012189
737,22.989381768502793
738,22.74893271423833
739,22.99999734478343
740,14.075698171916767
1272,15.6
1273,23.0
2078,17.0
865,23.0
906,23.0
947,23.0
988,23.0
1029,23.0
1070,0.0
1353,260331.5621762601
1410,0.0
1419,0.0
1428,0.0
1437,167938.28706685717
1903,260331.5621762601
1911,260331.5621762601
1929,0.0
1937,0.0
1955,0.0
1963,0.0
1981,0.0
1989,0.0
2007,167938.28706685717
2015,167938.28706685717
1384,97886.06343881588
1460,0.0
1533,0.0
2,1, 7, 1, 1, 1,45.00,60.00,Sunday
7,16.6
34,0.0
37,0.0
39,0.0
42,0.0
44,0.0
47,0.0
49,0.0
52,0.0
54,0.0
57,0.0
735,22.99998846037765
736,22.717720265536295
737,22.97036897341584
738,22.721767168194078
739,22.999997520326148
740,14.39081089774211
1272,15.6
1273,23.0
2078,17.0
865,23.0
906,23.0
947,23.0
988,23.0
1029,23.0
1070,0.0
1353,251120.28835969448
1410,0.0
1419,0.0
1428,0.0
1437,152688.5972062123
1903,251120.28835969448
1911,251120.28835969448
1929,0.0
1937,0.0
1955,0.0
1963,0.0
1981,0.0
1989,0.0
2007,152688.5972062123
2015,152688.5972062123
1384,92314.18997581559
1460,0.0
1533,0.0
2,1, 7, 1, 1, 2, 0.00,15.00,Sunday
7,16.625
34,0.0
37,0.0
39,0.0
42,0.0
44,0.0
47,0.0
49,0.0
52,0.0
54,0.0
57,0.0
735,23.000000347505226
736,22.70043744152966
737,22.956283560851149
738,22.704515878673488
739,23.00000058347914
740,14.639786467584552
1272,15.6
1273,23.0
2078,17.0
865,23.0
906,23.0
947,23.0
988,23.0
1029,23.0
1070,0.0
1353,252772.33774608313
1410,0.0
1419,0.0
1428,0.0
1437,149481.9035126586
1903,252772.33774608313
1911,252772.33774608313
1929,0.0
1937,0.0
1955,0.0
1963,0.0
1981,0.0
1989,0.0
2007,149481.9035126586
2015,149481.9035126586
1384,91941.6336621801
1460,0.0
1533,0.0
2,1, 7, 1, 1, 2,15.00,30.00,Sunday
7,16.65
34,0.0
37,0.0
39,0.0
42,0.0
44,0.0
47,0.0
49,0.0
52,0.0
54,0.0
57,0.0
735,23.000000851983754
736,22.69301988498514
737,22.948829356619699
738,22.69665725772966
739,23.0000008700938
740,14.836671673519814
1272,15.6
1273,23.0
2078,17.0
865,23.0
906,23.0
947,23.0
988,23.0
1029,23.0
1070,0.0
1353,254499.24751580106
1410,0.0
1419,0.0
1428,0.0
1437,146292.31270530955
1903,254499.24751580106
1911,254499.24751580106
1929,0.0
1937,0.0
1955,0.0
1963,0.0
1981,0.0
1989,0.0
2007,146292.31270530955
2015,146292.31270530955
1384,91593.19387579413
1460,0.0
1533,0.0
2,1, 7, 1, 1, 2,30.00,45.00,Sunday
7,16.674999999999998
34,0.0
37,0.0
39,0.0
42,0.0
44,0.0
47,0.0
49,0.0
52,0.0
54,0.0
57,0.0
735,23.00000098307998
736,22.690745657218075
737,22.944641823415308
738,22.692819732483444
739,23.000000958258587
740,14.991481016624956
1272,15.6
1273,23.0
2078,17.0
865,23.0
906,23.0
947,23.0
988,23.0
1029,23.0
1070,0.0
1353,256764.42492435306
1410,0.0
1419,0.0
1428,0.0
1437,143440.87780049048
1903,256764.42492435306
1911,256764.42492435306
1929,0.0
1937,0.0
1955,0.0
1963,0.0
1981,0.0
1989,0.0
2007,143440.87780049048
2015,143440.87780049048
1384,91440.499012404
1460,0.0
1533,0.0
2,1, 7, 1, 1, 2,45.00,60.00,Sunday
7,16.7
34,0.0
37,0.0
39,0.0
42,0.0
44,0.0
47,0.0
49,0.0
52,0.0
54,0.0
57,0.0
735,23.000001034511816
736,22.69002733823189
737,22.940922355726494
738,22.689910605037786
739,23.000000988757713
740,15.113404372827047
1272,15.6
1273,23.0
2078,17.0
865,23.0
906,23.0
947,23.0
988,23.0
1029,23.0
1070,0.0
1353,258818.07835651338
1410,0.0
1419,0.0
1428,0.0
1437,140770.3131313252
1903,258818.07835651338
1911,258818.07835651338
1929,0.0
1937,0.0
1955,0.0
1963,0.0
1981,0.0
1989,0.0
2007,140770.3131313252
2015,140770.3131313252
1384,91282.21762430604
1460,0.0
1533,0.0
2,1, 7, 1, 1, 3, 0.00,15.00,Sunday
7,16.75
34,0.0
37,0.0
39,0.0
42,0.0
44,0.0
47,0.0
49,0.0
52,0.0
54,0.0
57,0.0
735,23.000001079108118
736,22.690628510550849
737,22.93708058063544
738,22.688277391769966
739,23.000001009624066
740,15.214002260097452
1272,15.6
1273,23.0
2078,17.0
865,23.0
906,23.0
947,23.0
988,23.0
1029,23.0
1070,0.0
1353,263351.9565482194
1410,0.0
1419,0.0
1428,0.0
1437,139528.51242175446
1903,263351.9565482194
1911,263351.9565482194
1929,0.0
1937,0.0
1955,0.0
1963,0.0
1981,0.0
1989,0.0
2007,139528.51242175446
2015,139528.51242175446
1384,92007.97165848693
1460,0.0
1533,0.0
2,1, 7, 1, 1, 3,15.00,30.00,Sunday
7,16.799999999999998
34,0.0
37,0.0
39,0.0
42,0.0
44,0.0
47,0.0
49,0.0
52,0.0
54,0.0
57,0.0
735,23.00000112249573
736,22.692403430565304
737,22.932977103454176
738,22.688064569672645
739,23.000001028871244
740,15.299731391293081
1272,15.6
1273,23.0
2078,17.0
865,23.0
906,23.0
947,23.0
988,23.0
1029,23.0
1070,0.0
1353,267861.9571701126
1410,0.0
1419,0.0
1428,0.0
1437,138548.67627928649
1903,267861.9571701126
1911,267861.9571701126
1929,0.0
1937,0.0
1955,0.0
1963,0.0
1981,0.0
1989,0.0
2007,138548.67627928649
2015,138548.67627928649
1384,92787.55237697179
1460,0.0
1533,0.0
2,1, 7, 1, 1, 3,30.00,45.00,Sunday
7,16.849999999999999
34,0.0
37,0.0
39,0.0
42,0.0
44,0.0
47,0.0
49,0.0
52,0.0
54,0.0
57,0.0
735,23.00000116678228
736,22.694939449382649
737,22.928763948736138
738,22.688984396061764
739,23.000001048781117
740,15.373686886539544
1272,15.6
1273,23.0
2078,17.0
865,23.0
906,23.0
947,23.0
988,23.0
1029,23.0
1070,0.0
1353,272380.2902065374
1410,0.0
1419,0.0
1428,0.0
1437,137792.95129132115
1903,272380.2902065374
1911,272380.2902065374
1929,0.0
1937,0.0
1955,0.0
1963,0.0
1981,0.0
1989,0.0
2007,137792.95129132115
2015,137792.95129132115
1384,93619.55975514405
1460,0.0
1533,0.0
2,1, 7, 1, 1, 3,45.00,60.00,Sunday
7,16.9
34,0.0
37,0.0
39,0.0
42,0.0
44,0.0
47,0.0
49,0.0
52,0.0
54,0.0
57,0.0
735,23.00000120573821
736,22.697889872741205
737,22.92457066427965
738,22.690794846368616
739,23.000001070059797
740,15.437638654035198
1272,15.6
1273,23.0
2078,17.0
865,23.0
906,23.0
947,23.0
988,23.0
1029,23.0
1070,0.0
1353,276843.671891868
1410,0.0
1419,0.0
1428,0.0
1437,137244.15156125776
1903,276843.671891868
1911,276843.671891868
1929,0.0
1937,0.0
1955,0.0
1963,0.0
1981,0.0
1989,0.0
2007,137244.15156125776
2015,137244.15156125776
1384,94485.80636708351
1460,0.0
1533,0.0
2,1, 7, 1, 1, 4, 0.00,15.00,Sunday
7,16.924999999999998
34,0.0
37,0.0
39,0.0
42,0.0
44,0.0
47,0.0
49,0.0
52,0.0
54,0.0
57,0.0
735,23.00000121843192
736,22.70004463888813
737,22.920305219091035
738,22.692466229874865
739,23.000001079549155
740,15.49061548062705
1272,15.6
1273,23.0
2078,17.0
865,23.0
906,23.0
947,23.0
988,23.0
1029,23.0
1070,0.0
1353,277872.6297617542
1410,0.0
1419,0.0
1428,0.0
1437,135530.7494117719
1903,277872.6297617542
1911,277872.6297617542
1929,0.0
1937,0.0
1955,0.0
1963,0.0
1981,0.0
1989,0.0
2007,135530.7494117719
2015,135530.7494117719
1384,94322.38828689826
1460,0.0
1533,0.0
2,1, 7, 1, 1, 4,15.00,30.00,Sunday
7,16.95
34,0.0
37,0.0
39,0.0
42,0.0
44,0.0
47,0.0
49,0.0
52,0.0
54,0.0
57,0.0
735,23.000001221847595
736,22.70134681988231
737,22.915982453702737
738,22.693770520666687
739,23.000001083919373
740,15.533266549012066
1272,15.6
1273,23.0
2078,17.0
865,23.0
906,23.0
947,23.0
988,23.0
1029,23.0
1070,0.0
1353,278605.0183874756
1410,0.0
1419,0.0
1428,0.0
1437,133931.62103248813
1903,278605.0183874756
1911,278605.0183874756
1929,0.0
1937,0.0
1955,0.0
1963,0.0
1981,0.0
1989,0.0
2007,133931.62103248813
2015,133931.62103248813
1384,94121.01138759482
1460,0.0
1533,0.0
2,1, 7, 1, 1, 4,30.00,45.00,Sunday
7,16.975
34,0.0
37,0.0
39,0.0
42,0.0
44,0.0
47,0.0
49,0.0
52,0.0
54,0.0
57,0.0
735,23.000001217486774
736,22.702202415147739
737,22.911534842973958
738,22.695054314509805
739,23.000001083649449
740,15.567067099845819
1272,15.6
1273,23.0
2078,17.0
865,23.0
906,23.0
947,23.0
988,23.0
1029,23.0
1070,0.0
1353,278948.5757853464
1410,0.0
1419,0.0
1428,0.0
1437,132278.73770431253
1903,278948.5757853464
1911,278948.5757853464
1929,0.0
1937,0.0
1955,0.0
1963,0.0
1981,0.0
1989,0.0
2007,132278.73770431253
2015,132278.73770431253
1384,93823.5881052216
1460,0.0
1533,0.0
2,1, 7, 1, 1, 4,45.00,60.00,Sunday
7,17.0
34,0.0
37,0.0
39,0.0
42,0.0
44,0.0
47,0.0
49,0.0
52,0.0
54,0.0
57,0.0
735,23.000001205795074
736,22.702908841048573
737,22.907405834690559
738,22.69684362273223
739,23.000001082286784
740,15.590810507282625
1272,15.6
1273,23.0
2078,17.0
865,23.0
906,23.0
947,23.0
988,23.0
1029,23.0
1070,0.0
1353,278929.1495685724
1410,0.0
1419,0.0
1428,0.0
1437,131094.42336734414
1903,278929.1495685724
1911,278929.1495685724
1929,0.0
1937,0.0
1955,0.0
1963,0.0
1981,0.0
1989,0.0
2007,131094.42336734414
2015,131094.42336734414
1384,93554.60150761322
1460,0.0
1533,0.0
2,1, 7, 1, 1, 5, 0.00,15.00,Sunday
7,17.0
34,0.0
37,0.0
39,0.0
42,0.0
44,0.0
47,0.0
49,0.0
52,0.0
54,0.0
57,0.0
735,23.00000119459129
736,22.701441455234784
737,22.901735972146555
738,22.696763639008116
739,23.00000106959452
740,15.601470301367583
1272,15.6
1273,23.0
2078,17.0
865,23.0
906,23.0
947,23.0
988,23.0
1029,23.0
1070,0.0
1353,276846.08454940046
1410,0.0
1419,0.0
1428,0.0
1437,127192.27062950593
1903,276846.08454940046
1911,276846.08454940046
1929,0.0
1937,0.0
1955,0.0
1963,0.0
1981,0.0
1989,0.0
2007,127192.27062950593
2015,127192.27062950593
1384,92197.57697952452
1460,0.0
1533,0.0
2,1, 7, 1, 1, 5,15.00,30.00,Sunday
7,17.0
34,0.0
37,0.0
39,0.0
42,0.0
44,0.0
47,0.0
49,0.0
52,0.0
54,0.0
57,0.0
735,23.000001181952717
736,22.697931067610957
737,22.894416864161089
738,22.694230281211995
739,23.00000105803955
740,15.602925582105997
1272,15.6
1273,23.0
2078,17.0
865,23.0
906,23.0
947,23.0
988,23.0
1029,23.0
1070,0.0
1353,274622.67069077867
1410,0.0
1419,0.0
1428,0.0
1437,123590.20152869134
1903,274622.67069077867
1911,274622.67069077867
1929,0.0
1937,0.0
1955,0.0
1963,0.0
1981,0.0
1989,0.0
2007,123590.20152869134
2015,123590.20152869134
1384,90877.67504083898
1460,0.0
1533,0.0
2,1, 7, 1, 1, 5,30.00,45.00,Sunday
7,17.0
34,0.0
37,0.0
39,0.0
42,0.0
44,0.0
47,0.0
49,0.0
52,0.0
54,0.0
57,0.0
735,23.00000116922951
736,22.693301930100096
737,22.8862934780656
738,22.69005643478461
739,23.00000105911814
740,15.601321446313714
1272,15.6
1273,23.0
2078,17.0
865,23.0
906,23.0
947,23.0
988,23.0
1029,23.0
1070,0.0
1353,272364.49680196636
1410,0.0
1419,0.0
1428,0.0
1437,120493.27589151739
1903,272364.49680196636
1911,272364.49680196636
1929,0.0
1937,0.0
1955,0.0
1963,0.0
1981,0.0
1989,0.0
2007,120493.27589151739
2015,120493.27589151739
1384,89664.37708757073
1460,0.0
1533,0.0
2,1, 7, 1, 1, 5,45.00,60.00,Sunday
7,17.0
34,0.0
37,0.0
39,0.0
42,0.0
44,0.0
47,0.0
49,0.0
52,0.0
54,0.0
57,0.0
735,23.000001158885035
736,22.693788989282849
737,22.936060883985229
738,22.712829485031724
739,23.00000105322096
740,15.66207102870844
1272,15.6
1273,23.0
2078,17.0
865,23.0
906,23.0
947,23.0
988,23.0
1029,23.0
1070,0.0
1353,270703.86954811637
1410,0.0
1419,0.0
1428,0.0
1437,122584.2122231439
1903,270703.86954811637
1911,270703.86954811637
1929,0.0
1937,0.0
1955,0.0
1963,0.0
1981,0.0
1989,0.0
2007,122584.2122231439
2015,122584.2122231439
1384,89766.66116555417
1460,0.0
1533,0.0
2,1, 7, 1, 1, 6, 0.00,15.00,Sunday
7,17.25
34,0.0
37,0.0
39,0.0
42,0.0
44,0.0
47,0.0
49,0.0
52,0.0
54,0.0
57,0.0
735,23.000001222420616
736,22.70951986203985
737,22.99985518474401
738,22.76015092706377
739,23.000001129493059
740,15.921209585759966
1272,15.6
1273,23.0
2078,17.0
865,23.0
906,23.0
947,23.0
988,23.0
1029,23.0
1070,0.0
1353,295438.8253818467
1410,0.0
1419,21386.403039771154
1428,0.0
1437,137086.7355112989
1903,295438.8253818467
1911,295438.8253818467
1929,0.0
1937,0.0
1955,21386.403039771154
1963,21386.403039771154
1981,0.0
1989,0.0
2007,137086.7355112989
2015,137086.7355112989
1384,103573.4974468175
1460,0.0
1533,0.0
2,1, 7, 1, 1, 6,15.00,30.00,Sunday
7,17.5
34,0.0
37,0.0
39,0.0
42,0.0
44,0.0
47,0.0
49,0.0
52,0.0
54,0.0
57,0.0
735,23.00000081732931
736,22.73416684691612
737,23.000001805554918
738,22.799770084565055
739,23.000000813859388
740,16.27487116267688
1272,15.6
1273,23.0
2078,17.0
865,23.0
906,23.0
947,23.0
988,23.0
1029,23.0
1070,0.0
1353,322415.08332010186
1410,0.0
1419,63937.20910482133
1428,0.0
1437,152759.94907514455
1903,322415.08332010186
1911,322415.08332010186
1929,0.0
1937,0.0
1955,63937.20910482133
1963,63937.20910482133
1981,0.0
1989,0.0
2007,152759.94907514455
2015,152759.94907514455
1384,122981.51460228392
1460,0.0
1533,0.0
2,1, 7, 1, 1, 6,30.00,45.00,Sunday
7,17.75
34,0.0
37,0.0
39,0.0
42,0.0
44,0.0
47,0.0
49,0.0
52,0.0
54,0.0
57,0.0
735,23.0000006031439
736,22.769097732033495
737,23.000003146141393
738,22.86225339594558
739,23.00000062501031
740,16.868223271866705
1272,15.6
1273,23.0
2078,17.0
865,23.0
906,23.0
947,23.0
988,23.0
1029,23.0
1070,0.0
1353,350241.96820053909
1410,0.0
1419,143180.50151861437
1428,0.0
1437,172424.09566885344
1903,350241.96820053909
1911,350241.96820053909
1929,0.0
1937,0.0
1955,143180.50151861437
1963,143180.50151861437
1981,0.0
1989,0.0
2007,172424.09566885344
2015,172424.09566885344
1384,151796.10648039604
1460,0.0
1533,0.0
2,1, 7, 1, 1, 6,45.00,60.00,Sunday
7,18.0
34,0.0
37,0.0
39,0.0
42,0.0
44,0.0
47,0.0
49,0.0
52,0.0
54,0.0
57,0.0
735,23.000000493394816
736,22.81346887630883
737,23.000003636718906
738,22.93797424785223
739,23.00000053057869
740,17.73873690516785
1272,15.6
1273,23.0
2078,17.0
865,23.0
906,23.0
947,23.0
988,23.0
1029,23.0
1070,0.0
1353,379915.26826619866
1410,0.0
1419,233092.03532576283
1428,0.0
1437,193279.34528685109
1903,379915.26826619866
1911,379915.26826619866
1929,0.0
1937,0.0
1955,233092.03532576283
1963,233092.03532576283
1981,0.0
1989,0.0
2007,193279.34528685109
2015,193279.34528685109
1384,183529.33815800967
1460,0.0
1533,0.0
2,1, 7, 1, 1, 7, 0.00,15.00,Sunday
7,18.25
34,0.0
37,0.0
39,0.0
42,0.0
44,0.0
47,0.0
49,0.0
52,0.0
54,0.0
57,0.0
735,23.000000424842488
736,22.86354417950493
737,23.000003884494935
738,22.989253209212888
739,23.00000046884248
740,18.9765002606454
1272,15.6
1273,23.0
2078,17.0
865,23.000000000000005
906,23.000000000000005
947,23.000000000000005
988,23.000000000000005
1029,23.000000000000005
1070,0.0
1353,410415.33301267158
1410,0.0
1419,327539.6541254875
1428,74403.40775673792
1437,213129.48301214417
1903,410415.33301267158
1911,410415.33301267158
1929,0.0
1937,0.0
1955,327539.6541254875
1963,327539.6541254875
1981,74403.40775673792
1989,74403.40775673792
2007,213129.48301214417
2015,213129.48301214417
1384,233023.76902913946
1460,0.0
1533,0.0
2,1, 7, 1, 1, 7,15.00,30.00,Sunday
7,18.5
34,0.0
37,0.0
39,0.0
42,0.0
44,0.0
47,0.0
49,0.0
52,0.0
54,0.0
57,0.0
735,23.000000375726338
736,22.920039209197488
737,23.000003932736744
738,22.999890557774536
739,23.000000425800097
740,20.497102276858329
1272,15.6
1273,23.0
2078,17.0
865,22.999999999999998
906,22.999999999999998
947,22.999999999999998
988,22.999999999999998
1029,22.999999999999998
1070,0.0
1353,443772.8018991927
1410,0.0
1419,422364.4226100748
1428,160664.48362412153
1437,235322.7680417069
1903,443772.8018991927
1911,443772.8018991927
1929,0.0
1937,0.0
1955,422364.4226100748
1963,422364.4226100748
1981,160664.48362412153
1989,160664.48362412153
2007,235322.7680417069
2015,235322.7680417069
1384,286184.99121227508
1460,0.0
1533,0.0
2,1, 7, 1, 1, 7,30.00,45.00,Sunday
7,18.75
34,0.0
37,0.0
39,0.0
42,0.0
44,0.0
47,0.0
49,0.0
52,0.0
54,0.0
57,0.0
735,23.000000339725028
736,22.97630928669128
737,23.000003762240497
738,22.999999410618785
739,23.00000039352945
740,22.240058150986479
1272,15.6
1273,23.0
2078,17.0
865,23.000000000000037
906,23.000000000000037
947,23.000000000000037
988,23.000000000000037
1029,23.000000000000037
1070,0.0
1353,478344.95513157549
1410,18568.99399307531
1419,509125.987141813
1428,208492.4888222131
1437,257320.78884415097
1903,478344.95513157549
1911,478344.95513157549
1929,18568.99399307531
1937,18568.99399307531
1955,509125.987141813
1963,509125.987141813
1981,208492.4888222131
1989,208492.4888222131
2007,257320.78884415097
2015,257320.78884415097
1384,333034.2835306369
1460,0.0
1533,0.0
2,1, 7, 1, 1, 7,45.00,60.00,Sunday
7,19.0
34,0.0
37,0.0
39,0.0
42,0.0
44,0.0
47,0.0
49,0.0
52,0.0
54,0.0
57,0.0
735,23.00000031131476
736,22.998102102488845
737,23.000003581018029
738,23.000000234446288
739,23.00000036586125
740,24.086352401901743
1272,15.6
1273,23.0
2078,17.0
865,23.0
906,23.0
947,23.0
988,23.0
1029,23.0
1070,0.0
1353,513091.763405135
1410,90735.67429361497
1419,595937.8470311929
1428,234999.44447620109
1437,277933.0161050806
1903,513091.763405135
1911,513091.763405135
1929,90735.67429361497
1937,90735.67429361497
1955,595937.8470311929
1963,595937.8470311929
1981,234999.44447620109
1989,234999.44447620109
2007,277933.0161050806
2015,277933.0161050806
1384,386812.80588643599
1460,0.0
1533,0.0
2,1, 7, 1, 1, 8, 0.00,15.00,Sunday
7,19.25
34,0.0
37,0.0
39,0.0
42,0.0
44,0.0
47,0.0
49,0.0
52,0.0
54,0.0
57,0.0
735,23.00000058163315
736,23.004294358859619
737,23.000006043879126
738,23.0000004136068
739,23.000000499194504
740,26.470514293532973
1272,15.6
1273,23.0
2078,17.0
865,23.0
906,23.0
947,23.0
988,23.0
1029,23.0
1070,0.0
1353,548509.6149095612
1410,157199.19277005192
1419,676974.2053361752
1428,252942.2966727022
1437,294250.19635118698
1903,548509.6149095612
1911,548509.6149095612
1929,157199.19277005192
1937,157199.19277005192
1955,676974.2053361752
1963,676974.2053361752
1981,252942.2966727022
1989,252942.2966727022
2007,294250.19635118698
2015,294250.19635118698
1384,434870.26428548819
1460,0.0
1533,0.0
2,1, 7, 1, 1, 8,15.00,30.00,Sunday
7,19.5
34,0.0
37,0.0
39,0.0
42,0.0
44,0.0
47,0.0
49,0.0
52,0.0
54,0.0
57,0.0
735,23.00000037486494
736,23.000036121339297
737,23.000004393728028
738,23.000000305177797
739,23.000000443080205
740,27.942078749836086
1272,15.6
1273,23.0
2078,17.0
865,22.999999999999994
906,22.999999999999994
947,22.999999999999994
988,22.999999999999994
1029,22.999999999999994
1070,0.0
1353,586012.3146300851
1410,215504.0140809105
1419,763773.6041372137
1428,278660.9762010232
1437,310808.5938236683
1903,586012.3146300851
1911,586012.3146300851
1929,215504.0140809105
1937,215504.0140809105
1955,763773.6041372137
1963,763773.6041372137
1981,278660.9762010232
1989,278660.9762010232
2007,310808.5938236683
2015,310808.5938236683
1384,484678.87927659609
1460,0.0
1533,0.0
2,1, 7, 1, 1, 8,30.00,45.00,Sunday
7,19.75
34,0.0
37,0.0
39,0.0
42,0.0
44,0.0
47,0.0
49,0.0
52,0.0
54,0.0
57,0.0
735,23.0000007642228
736,23.000000691464387
737,23.000007110513793
738,23.000000552030554
739,23.00000063387768
740,30.026581103100804
1272,15.6
1273,23.0
2078,17.0
865,23.00000000000003
906,23.00000000000003
947,23.00000000000003
988,23.00000000000003
1029,23.00000000000003
1070,0.0
1353,624368.9961757328
1410,264046.5030432973
1419,824910.1540545084
1428,307749.493122704
1437,330431.2486212306
1903,624368.9961757328
1911,624368.9961757328
1929,264046.5030432973
1937,264046.5030432973
1955,824910.1540545084
1963,824910.1540545084
1981,307749.493122704
1989,307749.493122704
2007,330431.2486212306
2015,330431.2486212306
1384,528058.7147958211
1460,0.0
1533,0.0
2,1, 7, 1, 1, 8,45.00,60.00,Sunday
7,20.0
34,0.0
37,0.0
39,0.0
42,0.0
44,0.0
47,0.0
49,0.0
52,0.0
54,0.0
57,0.0
735,23.000000975444896
736,23.00000053123339
737,23.000008711075418
738,23.00000070976649
739,23.0000007456795
740,31.712388039862178
1272,15.6
1273,23.0
2078,17.0
865,23.000000000000037
906,23.000000000000037
947,23.000000000000037
988,23.000000000000037
1029,23.000000000000037
1070,0.0
1353,663797.9942776389
1410,309049.3034727688
1419,878401.9375938834
1428,339765.78891010387
1437,352324.3030352605
1903,663797.9942776389
1911,663797.9942776389
1929,309049.3034727688
1937,309049.3034727688
1955,878401.9375938834
1963,878401.9375938834
1981,339765.78891010387
1989,339765.78891010387
2007,352324.3030352605
2015,352324.3030352605
1384,570272.2791606928
1460,0.0
1533,0.0
2,1, 7, 1, 1, 9, 0.00,15.00,Sunday
7,20.5
34,0.0
37,0.0
39,0.0
42,0.0
44,0.0
47,0.0
49,0.0
52,0.0
54,0.0
57,0.0
735,23.00000046461562
736,23.00000043127948
737,23.000005158625127
738,23.000000446744907
739,23.000000572181805
740,33.00606279594575
1272,15.6
1273,23.0
2078,17.0
865,22.999999999999998
906,22.999999999999998
947,22.999999999999998
988,22.999999999999998
1029,22.999999999999998
1070,0.0
1353,727809.8631536805
1410,373227.3081213364
1419,934235.8812072361
1428,402304.6477007858
1437,390878.1811702671
1903,727809.8631536805
1911,727809.8631536805
1929,373227.3081213364
1937,373227.3081213364
1955,934235.8812072361
1963,934235.8812072361
1981,402304.6477007858
1989,402304.6477007858
2007,390878.1811702671
2015,390878.1811702671
1384,632953.4387028476
1460,0.0
1533,0.0
2,1, 7, 1, 1, 9,15.00,30.00,Sunday
7,21.0
34,0.0
37,0.0
39,0.0
42,0.0
44,0.0
47,0.0
49,0.0
52,0.0
54,0.0
57,0.0
735,23.000001192123585
736,23.00000089199067
737,23.000007465783648
738,23.00000103899311
739,23.000001057718174
740,34.84360408011325
1272,15.6
1273,23.0
2078,17.0
865,22.999999999999998
906,22.999999999999998
947,22.999999999999998
988,22.999999999999998
1029,22.999999999999998
1070,0.0
1353,790670.1576669876
1410,442730.218589361
1419,981299.5513425828
1428,469961.9005781739
1437,430366.9390388361
1903,790670.1576669876
1911,790670.1576669876
1929,442730.218589361
1937,442730.218589361
1955,981299.5513425828
1963,981299.5513425828
1981,469961.9005781739
1989,469961.9005781739
2007,430366.9390388361
2015,430366.9390388361
1384,695819.7194552646
1460,0.0
1533,0.0
2,1, 7, 1, 1, 9,30.00,45.00,Sunday
7,21.5
34,0.0
37,0.0
39,0.0
42,0.0
44,0.0
47,0.0
49,0.0
52,0.0
54,0.0
57,0.0
735,23.000001595130934
736,23.00000125557013
737,23.00000869450069
738,23.000001466062856
739,23.000001357884739
740,36.4387578416876
1272,15.6
1273,23.0
2078,17.0
865,22.999999999999998
906,22.999999999999998
947,22.999999999999998
988,22.999999999999998
1029,22.999999999999998
1070,0.0
1353,852509.1582502744
1410,509610.474848272
1419,1016558.1787460705
1428,538509.7992791524
1437,469495.30529914496
1903,852509.1582502744
1911,852509.1582502744
1929,509610.474848272
1937,509610.474848272
1955,1016558.1787460705
1963,1016558.1787460705
1981,538509.7992791524
1989,538509.7992791524
2007,469495.30529914496
2015,469495.30529914496
1384,758906.0634990478
1460,0.0
1533,0.0
2,1, 7, 1, 1, 9,45.00,60.00,Sunday
7,22.0
34,0.0
37,0.0
39,0.0
42,0.0
44,0.0
47,0.0
49,0.0
52,0.0
54,0.0
57,0.0
735,23.00000162725
736,23.00000141459025
737,23.00000717788662
738,23.00000162788409
739,23.00000149843882
740,38.02411453088621
1272,15.6
1273,23.0
2078,17.0
865,22.999999999999998
906,22.999999999999998
947,22.999999999999998
988,22.999999999999998
1029,22.999999999999998
1070,0.0
1353,913386.4711371175
1410,577067.5672850848
1419,1034940.8201897685
1428,608361.9724622177
1437,512062.08176632699
1903,913386.4711371175
1911,913386.4711371175
1929,577067.5672850848
1937,577067.5672850848
1955,1034940.8201897685
1963,1034940.8201897685
1981,608361.9724622177
1989,608361.9724622177
2007,512062.08176632699
2015,512062.08176632699
1384,821066.520188562
1460,0.0
1533,0.0
2,1, 7, 1, 1,10, 0.00,15.00,Sunday
7,22.25
34,0.0
37,0.0
39,0.0
42,0.0
44,0.0
47,0.0
49,0.0
52,0.0
54,0.0
57,0.0
735,23.000001786805745
736,23.00000163316305
737,23.00000660353924
738,23.00000187514808
739,23.00000173478211
740,39.58036071278255
1272,15.6
1273,23.0
2078,17.0
865,22.999999999999998
906,22.999999999999998
947,22.999999999999998
988,22.999999999999998
1029,22.999999999999998
1070,0.0
1353,950831.2337416238
1410,623567.751925453
1419,1036858.9322956387
1428,656104.6235269692
1437,542403.2037878777
1903,950831.2337416238
1911,950831.2337416238
1929,623567.751925453
1937,623567.751925453
1955,1036858.9322956387
1963,1036858.9322956387
1981,656104.6235269692
1989,656104.6235269692
2007,542403.2037878777
2015,542403.2037878777
1384,860257.2674781671
1460,0.0
1533,0.0
2,1, 7, 1, 1,10,15.00,30.00,Sunday
7,22.5
34,0.0
37,0.0
39,0.0
42,0.0
44,0.0
47,0.0
49,0.0
52,0.0
54,0.0
57,0.0
735,23.000001988204138
736,23.000001907282056
737,23.000006366316375
738,23.000002169871267
739,23.000002043511804
740,41.10226823087188
1272,15.6
1273,23.0
2078,17.0
865,22.999999999999998
906,22.999999999999998
947,22.999999999999998
988,22.999999999999998
1029,22.999999999999998
1070,0.0
1353,987168.0776500625
1410,672963.9469252211
1419,1028793.8117076537
1428,703370.1992027601
1437,572918.739686038
1903,987168.0776500625
1911,987168.0776500625
1929,672963.9469252211
1937,672963.9469252211
1955,1028793.8117076537
1963,1028793.8117076537
1981,703370.1992027601
1989,703370.1992027601
2007,572918.739686038
2015,572918.739686038
1384,897912.3951294359
1460,0.0
1533,0.0
2,1, 7, 1, 1,10,30.00,45.00,Sunday
7,22.75
34,0.0
37,0.0
39,0.0
42,0.0
44,0.0
47,0.0
49,0.0
52,0.0
54,0.0
57,0.0
735,23.000000529458217
736,23.00000061943578
737,23.000005927720829
738,23.00000059057454
739,23.00000071063472
740,42.31408719799452
1272,15.6
1273,23.0
2078,17.0
865,23.000000000000005
906,23.000000000000005
947,23.000000000000005
988,23.000000000000005
1029,23.000000000000005
1070,0.0
1353,1247871.616014919
1410,721841.5705825449
1419,1008083.6964995368
1428,748809.5221645513
1437,602695.16755958
1903,1247871.616014919
1911,1247871.616014919
1929,721841.5705825449
1937,721841.5705825449
1955,1008083.6964995368
1963,1008083.6964995368
1981,748809.5221645513
1989,748809.5221645513
2007,602695.16755958
2015,602695.16755958
1384,980767.2668467206
1460,0.0
1533,0.0
2,1, 7, 1, 1,10,45.00,60.00,Sunday
7,23.0
34,0.0
37,0.0
39,0.0
42,0.0
44,0.0
47,0.0
49,0.0
52,0.0
54,0.0
57,0.0
735,23.00000634122699
736,23.000002907530744