Program Version,EnergyPlus, Version 9.4.0-998c4b761e, YMD=2021.01.15 11:04
1,5,Environment Title[],Latitude[deg],Longitude[deg],Time Zone[],Elevation[m]
2,8,Day of Simulation[],Month[],Day of Month[],DST Indicator[1=yes 0=no],Hour[],StartMinute[],EndMinute[],DayType
3,5,Cumulative Day of Simulation[],Month[],Day of Month[],DST Indicator[1=yes 0=no],DayType  ! When Daily Report Variables Requested
4,2,Cumulative Days of Simulation[],Month[]  ! When Monthly Report Variables Requested
5,1,Cumulative Days of Simulation[] ! When Run Period Report Variables Requested
6,1,Calendar Year of Simulation[] ! When Annual Report Variables Requested
7,1,Environment,Site Outdoor Air Drybulb Temperature [C] !TimeStep
8,1,LIVING_UNIT1,Zone People Occupant Count [] !TimeStep
211,1,LIVING_UNIT1,Zone Mean Air Temperature [C] !TimeStep
212,1,ATTIC_UNIT1,Zone Mean Air Temperature [C] !TimeStep
360,1,LIVING_UNIT1,Zone Thermostat Cooling Setpoint Temperature [C] !TimeStep
399,1,ATTIC_UNIT1,Zone Thermostat Cooling Setpoint Temperature [C] !TimeStep
547,1,HTGSETP_SCH,Schedule Value [] !TimeStep
548,1,CLGSETP_SCH,Schedule Value [] !TimeStep
1035,1,CENTRAL SYSTEM_UNIT1,Air System Total Cooling Energy [J] !TimeStep
End of Data Dictionary
1,HONOLULU INTL ARPT ANN HTG 99.6% CONDNS DB,  36.90, -76.20,  -5.00,   9.00
2,1, 2,21, 0, 1, 0.00,15.00,WinterDesignDay
7,16.2
8,3.0
211,19.152679876600204
212,11.928458897159186
547,15.6
548,24.0
360,24.0
399,0.0
1035,0.0
2,1, 2,21, 0, 1,15.00,30.00,WinterDesignDay
7,16.2
8,3.0
211,19.107880464463418
212,11.929246839442224
547,15.6
548,24.0
360,24.0
399,0.0
1035,0.0
2,1, 2,21, 0, 1,30.00,45.00,WinterDesignDay
7,16.2
8,3.0
211,19.068963606895815
212,11.929798883253213
547,15.6
548,24.0
360,24.0
399,0.0
1035,0.0
2,1, 2,21, 0, 1,45.00,60.00,WinterDesignDay
7,16.2
8,3.0
211,19.037074548940926
212,11.930119027845662
547,15.6
548,24.0
360,24.0
399,0.0
1035,0.0
2,1, 2,21, 0, 2, 0.00,15.00,WinterDesignDay
7,16.2
8,2.69079
211,18.988930632177323
212,11.93021762020743
547,15.6
548,24.0
360,24.0
399,0.0
1035,0.0
2,1, 2,21, 0, 2,15.00,30.00,WinterDesignDay
7,16.2
8,2.69079
211,18.939721122630144
212,11.93010633413464
547,15.6
548,24.0
360,24.0
399,0.0
1035,0.0
2,1, 2,21, 0, 2,30.00,45.00,WinterDesignDay
7,16.2
8,2.69079
211,18.900024560865917
212,11.929798960993287
547,15.6
548,24.0
360,24.0
399,0.0
1035,0.0
2,1, 2,21, 0, 2,45.00,60.00,WinterDesignDay
7,16.2
8,2.69079
211,18.869376117516297
212,11.929311564521078
547,15.6
548,24.0
360,24.0
399,0.0
1035,0.0
2,1, 2,21, 0, 3, 0.00,15.00,WinterDesignDay
7,16.2
8,3.0
211,18.858603296031239
212,11.92866145019447
547,15.6
548,24.0
360,24.0
399,0.0
1035,0.0
2,1, 2,21, 0, 3,15.00,30.00,WinterDesignDay
7,16.2
8,3.0
211,18.85022510711999
212,11.92787852889022
547,15.6
548,24.0
360,24.0
399,0.0
1035,0.0
2,1, 2,21, 0, 3,30.00,45.00,WinterDesignDay
7,16.2
8,3.0
211,18.835521335927635
212,11.926975434014559
547,15.6
548,24.0
360,24.0
399,0.0
1035,0.0
2,1, 2,21, 0, 3,45.00,60.00,WinterDesignDay
7,16.2
8,3.0
211,18.816166684058158
212,11.92596140581148
547,15.6
548,24.0
360,24.0
399,0.0
1035,0.0
2,1, 2,21, 0, 4, 0.00,15.00,WinterDesignDay
7,16.2
8,2.69079
211,18.779384500825786
212,11.924854851186078
547,15.6
548,24.0
360,24.0
399,0.0
1035,0.0
2,1, 2,21, 0, 4,15.00,30.00,WinterDesignDay
7,16.2
8,2.69079
211,18.742701047236289
212,11.923678459584063
547,15.6
548,24.0
360,24.0
399,0.0
1035,0.0
2,1, 2,21, 0, 4,30.00,45.00,WinterDesignDay
7,16.2
8,2.69079
211,18.715197046758836
212,11.922453016758278
547,15.6
548,24.0
360,24.0
399,0.0
1035,0.0
2,1, 2,21, 0, 4,45.00,60.00,WinterDesignDay
7,16.2
8,2.69079
211,18.695217430721905
212,11.921195304555445
547,15.6
548,24.0
360,24.0
399,0.0
1035,0.0
2,1, 2,21, 0, 5, 0.00,15.00,WinterDesignDay
7,16.2
8,3.0
211,18.701156303421475
212,11.919957449879089
547,15.6
548,24.0
360,24.0
399,0.0
1035,0.0
2,1, 2,21, 0, 5,15.00,30.00,WinterDesignDay
7,16.2
8,3.0
211,18.71096328501427
212,11.918728129376307
547,15.6
548,24.0
360,24.0
399,0.0
1035,0.0
2,1, 2,21, 0, 5,30.00,45.00,WinterDesignDay
7,16.2
8,3.0
211,18.711752246056724
212,11.91748319869373
547,15.6
548,24.0
360,24.0
399,0.0
1035,0.0
2,1, 2,21, 0, 5,45.00,60.00,WinterDesignDay
7,16.2
8,3.0
211,18.704823454384415
212,11.916229701570183
547,15.6
548,24.0
360,24.0
399,0.0
1035,0.0
2,1, 2,21, 0, 6, 0.00,15.00,WinterDesignDay
7,16.2
8,2.69079
211,18.698516072931598
212,11.914949268315045
547,15.6
548,24.0
360,24.0
399,0.0
1035,0.0
2,1, 2,21, 0, 6,15.00,30.00,WinterDesignDay
7,16.2
8,2.69079
211,18.698439707843208
212,11.913798304400143
547,15.6
548,24.0
360,24.0
399,0.0
1035,0.0
2,1, 2,21, 0, 6,30.00,45.00,WinterDesignDay
7,16.2
8,2.69079
211,18.70205829314663
212,11.912763631609714
547,15.6
548,24.0
360,24.0
399,0.0
1035,0.0
2,1, 2,21, 0, 6,45.00,60.00,WinterDesignDay
7,16.2
8,2.69079
211,18.706427525506375
212,11.91175966003317
547,15.6
548,24.0
360,24.0
399,0.0
1035,0.0
2,1, 2,21, 0, 7, 0.00,15.00,WinterDesignDay
7,16.2
8,3.0
211,18.73899833244969
212,11.910669618939611
547,15.6
548,24.0
360,24.0
399,0.0
1035,0.0
2,1, 2,21, 0, 7,15.00,30.00,WinterDesignDay
7,16.2
8,3.0
211,18.77645914406496
212,11.90960109175874
547,15.6
548,24.0
360,24.0
399,0.0
1035,0.0
2,1, 2,21, 0, 7,30.00,45.00,WinterDesignDay
7,16.2
8,3.0
211,18.802794131826344
212,11.908673422296783
547,15.6
548,24.0
360,24.0
399,0.0
1035,0.0
2,1, 2,21, 0, 7,45.00,60.00,WinterDesignDay
7,16.2
8,3.0
211,18.81840063448252
212,11.907898252326936
547,15.6
548,24.0
360,24.0
399,0.0
1035,0.0
2,1, 2,21, 0, 8, 0.00,15.00,WinterDesignDay
7,16.2
8,2.6493
211,18.81401394150509
212,11.907251323454135
547,15.6
548,24.0
360,24.0
399,0.0
1035,0.0
2,1, 2,21, 0, 8,15.00,30.00,WinterDesignDay
7,16.2
8,2.6493
211,18.81014695829874
212,11.906725023145216
547,15.6
548,24.0
360,24.0
399,0.0
1035,0.0
2,1, 2,21, 0, 8,30.00,45.00,WinterDesignDay
7,16.2
8,2.6493
211,18.816045136393023
212,11.906333314201416
547,15.6
548,24.0
360,24.0
399,0.0
1035,0.0
2,1, 2,21, 0, 8,45.00,60.00,WinterDesignDay
7,16.2
8,2.6493
211,18.82729431396805
212,11.906069346376798
547,15.6
548,24.0
360,24.0
399,0.0
1035,0.0
2,1, 2,21, 0, 9, 0.00,15.00,WinterDesignDay
7,16.2
8,1.22583
211,18.742674112777324
212,11.905916359916198
547,15.6
548,24.0
360,24.0
399,0.0
1035,0.0
2,1, 2,21, 0, 9,15.00,30.00,WinterDesignDay
7,16.2
8,1.22583
211,18.642574382411138
212,11.905868149206697
547,15.6
548,24.0
360,24.0
399,0.0
1035,0.0
2,1, 2,21, 0, 9,30.00,45.00,WinterDesignDay
7,16.2
8,1.22583
211,18.579896893740714
212,11.905912834028007
547,15.6
548,24.0
360,24.0
399,0.0
1035,0.0
2,1, 2,21, 0, 9,45.00,60.00,WinterDesignDay
7,16.2
8,1.22583
211,18.553337937737689
212,11.90602389373841
547,15.6
548,24.0
360,24.0
399,0.0
1035,0.0
2,1, 2,21, 0,10, 0.00,15.00,WinterDesignDay
7,16.2
8,0.72567
211,18.50405582675973
212,11.906166115798417
547,15.6
548,24.0
360,24.0
399,0.0
1035,0.0
2,1, 2,21, 0,10,15.00,30.00,WinterDesignDay
7,16.2
8,0.72567
211,18.44938373726262
212,11.906303489109109
547,15.6
548,24.0
360,24.0
399,0.0
1035,0.0
2,1, 2,21, 0,10,30.00,45.00,WinterDesignDay
7,16.2
8,0.72567
211,18.40664722713311
212,11.906403377007525
547,15.6
548,24.0
360,24.0
399,0.0
1035,0.0
2,1, 2,21, 0,10,45.00,60.00,WinterDesignDay
7,16.2
8,0.72567
211,18.377827754919225
212,11.906438283195865
547,15.6
548,24.0
360,24.0
399,0.0
1035,0.0
2,1, 2,21, 0,11, 0.00,15.00,WinterDesignDay
7,16.2
8,0.72567
211,18.3577114994146
212,11.90638729363366
547,15.6
548,24.0
360,24.0
399,0.0
1035,0.0
2,1, 2,21, 0,11,15.00,30.00,WinterDesignDay
7,16.2
8,0.72567
211,18.3398400396231
212,11.906237030620915
547,15.6
548,24.0
360,24.0
399,0.0
1035,0.0
2,1, 2,21, 0,11,30.00,45.00,WinterDesignDay
7,16.2
8,0.72567
211,18.321817746223826
212,11.905981636662121
547,15.6
548,24.0
360,24.0
399,0.0
1035,0.0
2,1, 2,21, 0,11,45.00,60.00,WinterDesignDay
7,16.2
8,0.72567
211,18.303932750997274
212,11.905621956711532
547,15.6
548,24.0
360,24.0
399,0.0
1035,0.0
2,1, 2,21, 0,12, 0.00,15.00,WinterDesignDay
7,16.2
8,0.72567
211,18.28748400200855
212,11.905164205751224
547,15.6
548,25.0
360,25.0
399,0.0
1035,0.0
2,1, 2,21, 0,12,15.00,30.00,WinterDesignDay
7,16.2
8,0.72567
211,18.2733753025552
212,11.904618348176893
547,15.6
548,25.0
360,25.0
399,0.0
1035,0.0
2,1, 2,21, 0,12,30.00,45.00,WinterDesignDay
7,16.2
8,0.72567
211,18.260248477377844
212,11.903996487834535
547,15.6
548,25.0
360,25.0
399,0.0
1035,0.0
2,1, 2,21, 0,12,45.00,60.00,WinterDesignDay
7,16.2
8,0.72567
211,18.24734957857104
212,11.903311534282466
547,15.6
548,25.0
360,25.0
399,0.0
1035,0.0
2,1, 2,21, 0,13, 0.00,15.00,WinterDesignDay
7,16.2
8,0.72567
211,18.234005995431958
212,11.902576263063825
547,15.6
548,25.0
360,25.0
399,0.0
1035,0.0
2,1, 2,21, 0,13,15.00,30.00,WinterDesignDay
7,16.2
8,0.72567
211,18.22109913392538
212,11.901827113381872
547,15.6
548,25.0
360,25.0
399,0.0
1035,0.0
2,1, 2,21, 0,13,30.00,45.00,WinterDesignDay
7,16.2
8,0.72567
211,18.209238453789579
212,11.901062342138987
547,15.6
548,25.0
360,25.0
399,0.0
1035,0.0
2,1, 2,21, 0,13,45.00,60.00,WinterDesignDay
7,16.2
8,0.72567
211,18.199648982255139
212,11.900271209437204
547,15.6
548,25.0
360,25.0
399,0.0
1035,0.0
2,1, 2,21, 0,14, 0.00,15.00,WinterDesignDay
7,16.2
8,0.72567
211,18.19180044253443
212,11.89945995914501
547,15.6
548,25.0
360,25.0
399,0.0
1035,0.0
2,1, 2,21, 0,14,15.00,30.00,WinterDesignDay
7,16.2
8,0.72567
211,18.18388562329482
212,11.898641461309206
547,15.6
548,25.0
360,25.0
399,0.0
1035,0.0
2,1, 2,21, 0,14,30.00,45.00,WinterDesignDay
7,16.2
8,0.72567
211,18.175440379758027
212,11.897824738860452
547,15.6
548,25.0
360,25.0
399,0.0
1035,0.0
2,1, 2,21, 0,14,45.00,60.00,WinterDesignDay
7,16.2
8,0.72567
211,18.16685887599626
212,11.897014795688318
547,15.6
548,25.0
360,25.0
399,0.0
1035,0.0
2,1, 2,21, 0,15, 0.00,15.00,WinterDesignDay
7,16.2
8,0.72567
211,18.160634269023814
212,11.896215522081816
547,15.6
548,25.0
360,25.0
399,0.0
1035,0.0
2,1, 2,21, 0,15,15.00,30.00,WinterDesignDay
7,16.2
8,0.72567
211,18.15535966288553
212,11.895430758137535
547,15.6
548,25.0
360,25.0
399,0.0
1035,0.0
2,1, 2,21, 0,15,30.00,45.00,WinterDesignDay
7,16.2
8,0.72567
211,18.150728095117974
212,11.894664066568226
547,15.6
548,25.0
360,25.0
399,0.0
1035,0.0
2,1, 2,21, 0,15,45.00,60.00,WinterDesignDay
7,16.2
8,0.72567
211,18.146355458024787
212,11.89391852911522
547,15.6
548,25.0
360,25.0
399,0.0
1035,0.0
2,1, 2,21, 0,16, 0.00,15.00,WinterDesignDay
7,16.2
8,0.72567
211,18.150576398485453
212,11.893196704260842
547,15.6
548,25.0
360,25.0
399,0.0
1035,0.0
2,1, 2,21, 0,16,15.00,30.00,WinterDesignDay
7,16.2
8,0.72567
211,18.15768725331734
212,11.892547301969751
547,15.6
548,25.0
360,25.0
399,0.0
1035,0.0
2,1, 2,21, 0,16,30.00,45.00,WinterDesignDay
7,16.2
8,0.72567
211,18.162580631905656
212,11.891949234819027
547,15.6
548,25.0
360,25.0
399,0.0
1035,0.0
2,1, 2,21, 0,16,45.00,60.00,WinterDesignDay
7,16.2
8,0.72567
211,18.16458809000123
212,11.891366774916463
547,15.6
548,25.0
360,25.0
399,0.0
1035,0.0
2,1, 2,21, 0,17, 0.00,15.00,WinterDesignDay
7,16.2
8,0.8849400000000001
211,18.20149290910282
212,11.890728852601099
547,15.6
548,25.0
360,25.0
399,0.0
1035,0.0
2,1, 2,21, 0,17,15.00,30.00,WinterDesignDay
7,16.2
8,0.8849400000000001
211,18.24916939696126
212,11.89010964844169
547,15.6
548,25.0
360,25.0
399,0.0
1035,0.0
2,1, 2,21, 0,17,30.00,45.00,WinterDesignDay
7,16.2
8,0.8849400000000001
211,18.28709001344382
212,11.889581522263552
547,15.6
548,25.0
360,25.0
399,0.0
1035,0.0
2,1, 2,21, 0,17,45.00,60.00,WinterDesignDay
7,16.2
8,0.8849400000000001
211,18.313290151953685
212,11.889154503212085
547,15.6
548,25.0
360,25.0
399,0.0
1035,0.0
2,1, 2,21, 0,18, 0.00,15.00,WinterDesignDay
7,16.2
8,1.6593
211,18.402581189605006
212,11.888823012611013
547,15.6
548,25.0
360,25.0
399,0.0
1035,0.0
2,1, 2,21, 0,18,15.00,30.00,WinterDesignDay
7,16.2
8,1.6593
211,18.503240015376759
212,11.888601621598117
547,15.6
548,25.0
360,25.0
399,0.0
1035,0.0
2,1, 2,21, 0,18,30.00,45.00,WinterDesignDay
7,16.2
8,1.6593
211,18.578120538046908
212,11.888513199100644
547,15.6
548,25.0
360,25.0
399,0.0
1035,0.0
2,1, 2,21, 0,18,45.00,60.00,WinterDesignDay
7,16.2
8,1.6593
211,18.627549168516368
212,11.888579123638437
547,15.6
548,25.0
360,25.0
399,0.0
1035,0.0
2,1, 2,21, 0,19, 0.00,15.00,WinterDesignDay
7,16.2
8,2.69079
211,18.73837954442094
212,11.88881853443021
547,15.6
548,25.0
360,25.0
399,0.0
1035,0.0
2,1, 2,21, 0,19,15.00,30.00,WinterDesignDay
7,16.2
8,2.69079
211,18.856421142923499
212,11.889246487003229
547,15.6
548,25.0
360,25.0
399,0.0
1035,0.0
2,1, 2,21, 0,19,30.00,45.00,WinterDesignDay
7,16.2
8,2.69079
211,18.945007939736884
212,11.889873210093655
547,15.6
548,25.0
360,25.0
399,0.0
1035,0.0
2,1, 2,21, 0,19,45.00,60.00,WinterDesignDay
7,16.2
8,2.69079
211,19.005071647081747
212,11.89070554930597
547,15.6
548,25.0
360,25.0
399,0.0
1035,0.0
2,1, 2,21, 0,20, 0.00,15.00,WinterDesignDay
7,16.2
8,2.69079
211,19.05798635332988
212,11.891747346467243
547,15.6
548,25.0
360,25.0
399,0.0
1035,0.0
2,1, 2,21, 0,20,15.00,30.00,WinterDesignDay
7,16.2
8,2.69079
211,19.108547932311326
212,11.892997950620405
547,15.6
548,25.0
360,25.0
399,0.0
1035,0.0
2,1, 2,21, 0,20,30.00,45.00,WinterDesignDay
7,16.2
8,2.69079
211,19.15573242859064
212,11.894450525389305
547,15.6
548,25.0
360,25.0
399,0.0
1035,0.0
2,1, 2,21, 0,20,45.00,60.00,WinterDesignDay
7,16.2
8,2.69079
211,19.199988463575467
212,11.896091408726165
547,15.6
548,25.0
360,25.0
399,0.0
1035,0.0
2,1, 2,21, 0,21, 0.00,15.00,WinterDesignDay
7,16.2
8,2.69079
211,19.242071292239034
212,11.897900794388609
547,15.6
548,25.0
360,25.0
399,0.0
1035,0.0
2,1, 2,21, 0,21,15.00,30.00,WinterDesignDay
7,16.2
8,2.69079
211,19.280125748576567
212,11.899854438281388
547,15.6
548,25.0
360,25.0
399,0.0
1035,0.0
2,1, 2,21, 0,21,30.00,45.00,WinterDesignDay
7,16.2
8,2.69079
211,19.314223462719764
212,11.901925631194587
547,15.6
548,25.0
360,25.0
399,0.0
1035,0.0
2,1, 2,21, 0,21,45.00,60.00,WinterDesignDay
7,16.2
8,2.69079
211,19.345456901957019
212,11.904087038470557
547,15.6
548,25.0
360,25.0
399,0.0
1035,0.0
2,1, 2,21, 0,22, 0.00,15.00,WinterDesignDay
7,16.2
8,3.0
211,19.37306595855105
212,11.906213743318546
547,15.6
548,25.0
360,25.0
399,0.0
1035,0.0
2,1, 2,21, 0,22,15.00,30.00,WinterDesignDay
7,16.2
8,3.0
211,19.395034171203734
212,11.908404671688182
547,15.6
548,25.0
360,25.0
399,0.0
1035,0.0
2,1, 2,21, 0,22,30.00,45.00,WinterDesignDay
7,16.2
8,3.0
211,19.412358875393126
212,11.91067577502058
547,15.6
548,25.0
360,25.0
399,0.0
1035,0.0
2,1, 2,21, 0,22,45.00,60.00,WinterDesignDay
7,16.2
8,3.0
211,19.427341978819518
212,11.91294794096982
547,15.6
548,25.0
360,25.0
399,0.0
1035,0.0
2,1, 2,21, 0,23, 0.00,15.00,WinterDesignDay
7,16.2
8,2.69079
211,19.393116612783009
212,11.915197741908655
547,15.6
548,24.0
360,24.0
399,0.0
1035,0.0
2,1, 2,21, 0,23,15.00,30.00,WinterDesignDay
7,16.2
8,2.69079
211,19.34511710978012
212,11.917357876579514
547,15.6
548,24.0
360,24.0
399,0.0
1035,0.0
2,1, 2,21, 0,23,30.00,45.00,WinterDesignDay
7,16.2
8,2.69079
211,19.31107269749682
212,11.919406377476042
547,15.6
548,24.0
360,24.0
399,0.0
1035,0.0
2,1, 2,21, 0,23,45.00,60.00,WinterDesignDay
7,16.2
8,2.69079
211,19.293301246069384
212,11.921340832183322
547,15.6
548,24.0
360,24.0
399,0.0
1035,0.0
2,1, 2,21, 0,24, 0.00,15.00,WinterDesignDay
7,16.2
8,3.0
211,19.274096005238968
212,11.923162936845224
547,15.6
548,24.0
360,24.0
399,0.0
1035,0.0
2,1, 2,21, 0,24,15.00,30.00,WinterDesignDay
7,16.2
8,3.0
211,19.248294327108448
212,11.924803663733478
547,15.6
548,24.0
360,24.0
399,0.0
1035,0.0
2,1, 2,21, 0,24,30.00,45.00,WinterDesignDay
7,16.2
8,3.0
211,19.220529957480868
212,11.92623200633938
547,15.6
548,24.0
360,24.0
399,0.0
1035,0.0
2,1, 2,21, 0,24,45.00,60.00,WinterDesignDay
7,16.2
8,3.0
211,19.194958781135907
212,11.92744810695069
547,15.6
548,24.0
360,24.0
399,0.0
1035,0.0
1,HONOLULU INTL ARPT ANN CLG .4% CONDNS DB=>MWB,  36.90, -76.20,  -5.00,   9.00
2,1, 8,21, 0, 1, 0.00,15.00,SummerDesignDay
7,26.271500000000004
8,3.0
211,24.000003940487955
212,24.604934522989927
547,15.6
548,24.0
360,24.0
399,0.0
1035,2033048.560105505
2,1, 8,21, 0, 1,15.00,30.00,SummerDesignDay
7,26.165000000000004
8,3.0
211,24.000004039803704
212,24.47550499032071
547,15.6
548,24.0
360,24.0
399,0.0
1035,1925270.9468942618
2,1, 8,21, 0, 1,30.00,45.00,SummerDesignDay
7,26.058500000000003
8,3.0
211,24.0000041133487
212,24.35099804655555
547,15.6
548,24.0
360,24.0
399,0.0
1035,1831241.445083646
2,1, 8,21, 0, 1,45.00,60.00,SummerDesignDay
7,25.952000000000007
8,3.0
211,24.000004226797885
212,24.230207389862785
547,15.6
548,24.0
360,24.0
399,0.0
1035,1747353.572827756
2,1, 8,21, 0, 2, 0.00,15.00,SummerDesignDay
7,25.881000000000005
8,2.69079
211,24.000004218456885
212,24.117539865908467
547,15.6
548,24.0
360,24.0
399,0.0
1035,1631163.1025305023
2,1, 8,21, 0, 2,15.00,30.00,SummerDesignDay
7,25.810000000000004
8,2.69079
211,24.00000424304109
212,24.01400685711819
547,15.6
548,24.0
360,24.0
399,0.0
1035,1562885.5374854587
2,1, 8,21, 0, 2,30.00,45.00,SummerDesignDay
7,25.739000000000006
8,2.69079
211,24.000004254564716
212,23.91831751734987
547,15.6
548,24.0
360,24.0
399,0.0
1035,1501880.2856035019
2,1, 8,21, 0, 2,45.00,60.00,SummerDesignDay
7,25.668000000000004
8,2.69079
211,24.000004252795568
212,23.828279203764774
547,15.6
548,24.0
360,24.0
399,0.0
1035,1445774.354441769
2,1, 8,21, 0, 3, 0.00,15.00,SummerDesignDay
7,25.614750000000006
8,3.0
211,24.000004261627315
212,23.744821779625135
547,15.6
548,24.0
360,24.0
399,0.0
1035,1427443.9569328672
2,1, 8,21, 0, 3,15.00,30.00,SummerDesignDay
7,25.561500000000004
8,3.0
211,24.000004261024498
212,23.66780630308273
547,15.6
548,24.0
360,24.0
399,0.0
1035,1381183.5783064843
2,1, 8,21, 0, 3,30.00,45.00,SummerDesignDay
7,25.508250000000005
8,3.0
211,24.00000421133701
212,23.5964531697749
547,15.6
548,24.0
360,24.0
399,0.0
1035,1338610.5513761959
2,1, 8,21, 0, 3,45.00,60.00,SummerDesignDay
7,25.455000000000007
8,3.0
211,24.00000419536433
212,23.529177766827556
547,15.6
548,24.0
360,24.0
399,0.0
1035,1298706.2446097113
2,1, 8,21, 0, 4, 0.00,15.00,SummerDesignDay
7,25.401750000000005
8,2.69079
211,24.000004153423647
212,23.464724497812929
547,15.6
548,24.0
360,24.0
399,0.0
1035,1223696.1715215573
2,1, 8,21, 0, 4,15.00,30.00,SummerDesignDay
7,25.3485
8,2.69079
211,24.000004126847768
212,23.402480052202063
547,15.6
548,24.0
360,24.0
399,0.0
1035,1186705.5153927555
2,1, 8,21, 0, 4,30.00,45.00,SummerDesignDay
7,25.295250000000004
8,2.69079
211,24.000004109606026
212,23.342081368010758
547,15.6
548,24.0
360,24.0
399,0.0
1035,1152024.895539598
2,1, 8,21, 0, 4,45.00,60.00,SummerDesignDay
7,25.242000000000006
8,2.69079
211,24.000004083332759
212,23.283201118853133
547,15.6
548,24.0
360,24.0
399,0.0
1035,1119144.9192809209
2,1, 8,21, 0, 5, 0.00,15.00,SummerDesignDay
7,25.206500000000007
8,3.0
211,24.000004083205654
212,23.228143668422598
547,15.6
548,24.0
360,24.0
399,0.0
1035,1147480.1441450117
2,1, 8,21, 0, 5,15.00,30.00,SummerDesignDay
7,25.171000000000004
8,3.0
211,24.000004105760568
212,23.17744798051774
547,15.6
548,24.0
360,24.0
399,0.0
1035,1126571.6960105706
2,1, 8,21, 0, 5,30.00,45.00,SummerDesignDay
7,25.135500000000005
8,3.0
211,24.000004095888987
212,23.130402660636894
547,15.6
548,24.0
360,24.0
399,0.0
1035,1104786.676905551
2,1, 8,21, 0, 5,45.00,60.00,SummerDesignDay
7,25.1
8,3.0
211,24.00000407664139
212,23.0860472578168
547,15.6
548,24.0
360,24.0
399,0.0
1035,1083345.318993809
2,1, 8,21, 0, 6, 0.00,15.00,SummerDesignDay
7,25.135500000000005
8,2.69079
211,24.00000410970368
212,23.054073570880566
547,15.6
548,24.0
360,24.0
399,0.0
1035,1102367.8904550174
2,1, 8,21, 0, 6,15.00,30.00,SummerDesignDay
7,25.171000000000004
8,2.69079
211,24.000004105828027
212,23.037393728366163
547,15.6
548,24.0
360,24.0
399,0.0
1035,1114518.8517758868
2,1, 8,21, 0, 6,30.00,45.00,SummerDesignDay
7,25.206500000000007
8,2.69079
211,24.00000432063908
212,23.086852874472386
547,15.6
548,24.0
360,24.0
399,0.0
1035,1346570.5901408455
2,1, 8,21, 0, 6,45.00,60.00,SummerDesignDay
7,25.242000000000006
8,2.69079
211,24.000004277568597
212,23.289496972746258
547,15.6
548,24.0
360,24.0
399,0.0
1035,1624395.1471307497
2,1, 8,21, 0, 7, 0.00,15.00,SummerDesignDay
7,25.36625
8,3.0
211,24.000002617417978
212,23.612310800828295
547,15.6
548,24.0
360,24.0
399,0.0
1035,1966186.0666931133
2,1, 8,21, 0, 7,15.00,30.00,SummerDesignDay
7,25.490500000000006
8,3.0
211,24.00006009804146
212,24.24514364204218
547,15.6
548,24.0
360,24.0
399,0.0
1035,2217521.6934360547
2,1, 8,21, 0, 7,30.00,45.00,SummerDesignDay
7,25.614750000000006
8,3.0
211,24.000002282484073
212,24.808445283862619
547,15.6
548,24.0
360,24.0
399,0.0
1035,2429288.999824911
2,1, 8,21, 0, 7,45.00,60.00,SummerDesignDay
7,25.739000000000006
8,3.0
211,24.000037862808197
212,25.81989141478434
547,15.6
548,24.0
360,24.0
399,0.0
1035,2613793.0095677964
2,1, 8,21, 0, 8, 0.00,15.00,SummerDesignDay
7,26.040750000000004
8,2.6493
211,24.000001440389906
212,26.70245222515036
547,15.6
548,24.0
360,24.0
399,0.0
1035,2804473.3360736139
2,1, 8,21, 0, 8,15.00,30.00,SummerDesignDay
7,26.342500000000006
8,2.6493
211,24.000000884416769
212,27.856049693455434
547,15.6
548,24.0
360,24.000000000000005
399,0.0
1035,3036570.9679853238
2,1, 8,21, 0, 8,30.00,45.00,SummerDesignDay
7,26.644250000000004
8,2.6493
211,24.000024740758908
212,29.392343354689346
547,15.6
548,24.0
360,24.000000000000005
399,0.0
1035,3232070.1761822297
2,1, 8,21, 0, 8,45.00,60.00,SummerDesignDay
7,26.946000000000006
8,2.6493
211,24.00003205191322
212,30.770889352624527
547,15.6
548,24.0
360,24.000000000000005
399,0.0
1035,3419202.320814678
2,1, 8,21, 0, 9, 0.00,15.00,SummerDesignDay
7,27.283250000000004
8,1.22583
211,24.00002638469369
212,32.19498049690001
547,15.6
548,24.0
360,24.000000000000005
399,0.0
1035,3394775.4647953847
2,1, 8,21, 0, 9,15.00,30.00,SummerDesignDay
7,27.620500000000005
8,1.22583
211,24.000024973480973
212,33.63219607777421
547,15.6
548,24.0
360,24.000000000000005
399,0.0
1035,3562366.8537768397
2,1, 8,21, 0, 9,30.00,45.00,SummerDesignDay
7,27.957750000000006
8,1.22583
211,24.000023703504426
212,35.073627257748388
547,15.6
548,24.0
360,24.000000000000005
399,0.0
1035,3730521.3516565698
2,1, 8,21, 0, 9,45.00,60.00,SummerDesignDay
7,28.295
8,1.22583
211,24.000022638335659
212,36.49918300457297
547,15.6
548,24.0
360,24.000000000000005
399,0.0
1035,3897256.0602433888
2,1, 8,21, 0,10, 0.00,15.00,SummerDesignDay
7,28.596750000000005
8,0.72567
211,24.000020951125895
212,37.892713327011708
547,15.6
548,24.0
360,24.000000000000005
399,0.0
1035,3973573.3202204687
2,1, 8,21, 0,10,15.00,30.00,SummerDesignDay
7,28.898500000000003
8,0.72567
211,24.000019516132743
212,39.24399671595321
547,15.6
548,24.0
360,24.000000000000005
399,0.0
1035,4116145.051130848
2,1, 8,21, 0,10,30.00,45.00,SummerDesignDay
7,29.200250000000005
8,0.72567
211,24.000018060632365
212,40.544864581472797
547,15.6
548,24.0
360,24.000000000000005
399,0.0
1035,4251139.816080586
2,1, 8,21, 0,10,45.00,60.00,SummerDesignDay
7,29.502000000000004
8,0.72567
211,24.00045748696072
212,41.789286758395849
547,15.6
548,24.0
360,24.000000000000005
399,0.0
1035,4376890.843308242
2,1, 8,21, 0,11, 0.00,15.00,SummerDesignDay
7,29.768250000000003
8,0.72567
211,24.000502977092695
212,42.845471353649958
547,15.6
548,24.0
360,24.0
399,0.0
1035,4504854.464680598
2,1, 8,21, 0,11,15.00,30.00,SummerDesignDay
7,30.0345
8,0.72567
211,24.00049289167794
212,44.06814604488899
547,15.6
548,24.0
360,24.0
399,0.0
1035,4605509.141286857
2,1, 8,21, 0,11,30.00,45.00,SummerDesignDay
7,30.300750000000006
8,0.72567
211,24.000473935822677
212,45.10186818777202
547,15.6
548,24.0
360,24.0
399,0.0
1035,4691812.536708268
2,1, 8,21, 0,11,45.00,60.00,SummerDesignDay
7,30.567000000000005
8,0.72567
211,24.00044275296277
212,46.053887208001828
547,15.6
548,24.0
360,24.0
399,0.0
1035,4773762.06266883
2,1, 8,21, 0,12, 0.00,15.00,SummerDesignDay
7,30.744500000000003
8,0.72567
211,24.910745514120618
212,46.91123293333308
547,15.6
548,25.0
360,25.0
399,0.0
1035,2665623.6260988309
2,1, 8,21, 0,12,15.00,30.00,SummerDesignDay
7,30.922000000000005
8,0.72567
211,24.99928890087422
212,47.58648851213993
547,15.6
548,25.0
360,24.999999999999998
399,0.0
1035,3260827.441604253
2,1, 8,21, 0,12,30.00,45.00,SummerDesignDay
7,31.099500000000004
8,0.72567
211,24.99995649544106
212,48.34196259759441
547,15.6
548,25.0
360,24.999999999999998
399,0.0
1035,3780297.5831953145
2,1, 8,21, 0,12,45.00,60.00,SummerDesignDay
7,31.277000000000006
8,0.72567
211,24.999973566920326
212,48.915749337091657
547,15.6
548,25.0
360,24.999999999999998
399,0.0
1035,4007308.333904372
2,1, 8,21, 0,13, 0.00,15.00,SummerDesignDay
7,31.419000000000005
8,0.72567
211,25.000903353314038
212,49.30231891087713
547,15.6
548,25.0
360,25.0
399,0.0
1035,4189250.8634042039
2,1, 8,21, 0,13,15.00,30.00,SummerDesignDay
7,31.561000000000005
8,0.72567
211,25.000898664448099
212,49.783743701821887
547,15.6
548,25.0
360,25.0
399,0.0
1035,4363839.7335052699
2,1, 8,21, 0,13,30.00,45.00,SummerDesignDay
7,31.703000000000004
8,0.72567
211,25.000831768699724
212,50.050865520059279
547,15.6
548,25.0
360,25.0
399,0.0
1035,4535446.166056095
2,1, 8,21, 0,13,45.00,60.00,SummerDesignDay
7,31.845000000000004
8,0.72567
211,25.00107427094727
212,50.25221559515063
547,15.6
548,25.0
360,25.0
399,0.0
1035,4700696.315489746
2,1, 8,21, 0,14, 0.00,15.00,SummerDesignDay
7,31.933750000000005
8,0.72567
211,25.00100634926534
212,50.377940525363559
547,15.6
548,25.0
360,25.0
399,0.0
1035,4853037.681565726
2,1, 8,21, 0,14,15.00,30.00,SummerDesignDay
7,32.0225
8,0.72567
211,25.000906518154346
212,50.40867762698064
547,15.6
548,25.0
360,25.0
399,0.0
1035,4989451.158490001
2,1, 8,21, 0,14,30.00,45.00,SummerDesignDay
7,32.111250000000008
8,0.72567
211,25.00080404815302
212,50.35368797916924
547,15.6
548,25.0
360,25.0
399,0.0
1035,5117586.131778025
2,1, 8,21, 0,14,45.00,60.00,SummerDesignDay
7,32.2
8,0.72567
211,25.00070367518252
212,50.2168322334404
547,15.6
548,25.0
360,25.0
399,0.0
1035,5236782.147165051
2,1, 8,21, 0,15, 0.00,15.00,SummerDesignDay
7,32.2
8,0.72567
211,25.000617717267127
212,49.98436787732079
547,15.6
548,25.0
360,25.0
399,0.0
1035,5336206.9433769
2,1, 8,21, 0,15,15.00,30.00,SummerDesignDay
7,32.2
8,0.72567
211,25.00036634454588
212,49.69616472206428
547,15.6
548,25.0
360,25.0
399,0.0
1035,5419239.333088014
2,1, 8,21, 0,15,30.00,45.00,SummerDesignDay
7,32.2
8,0.72567
211,25.000353436877498
212,49.248477628196919
547,15.6
548,25.0
360,25.0
399,0.0
1035,5494637.007622812
2,1, 8,21, 0,15,45.00,60.00,SummerDesignDay
7,32.2
8,0.72567
211,25.0003361145261
212,48.758865372083757
547,15.6
548,25.0
360,25.0
399,0.0
1035,5550602.33445941
2,1, 8,21, 0,16, 0.00,15.00,SummerDesignDay
7,32.093500000000009
8,0.72567
211,25.00029069594352
212,48.16102658325526
547,15.6
548,25.0
360,25.0
399,0.0
1035,5605396.12017604
2,1, 8,21, 0,16,15.00,30.00,SummerDesignDay
7,31.987000000000003
8,0.72567
211,25.0001772325893
212,47.53647476324666
547,15.6
548,25.0
360,24.999999999999998
399,0.0
1035,5629810.443531988
2,1, 8,21, 0,16,30.00,45.00,SummerDesignDay
7,31.8805
8,0.72567
211,25.000184619153314
212,46.697185292203659
547,15.6
548,25.0
360,24.999999999999998
399,0.0
1035,5636721.136901929
2,1, 8,21, 0,16,45.00,60.00,SummerDesignDay
7,31.774000000000006
8,0.72567
211,25.000195323271848
212,45.84086786262408
547,15.6
548,25.0
360,24.999999999999998
399,0.0
1035,5622469.1759485979
2,1, 8,21, 0,17, 0.00,15.00,SummerDesignDay
7,31.632
8,0.8849400000000001
211,25.000127040713037
212,44.98521131253763
547,15.6
548,25.0
360,25.0
399,0.0
1035,5683232.1970282229
2,1, 8,21, 0,17,15.00,30.00,SummerDesignDay
7,31.490000000000003
8,0.8849400000000001
211,25.0001366530366
212,43.90078743382131
547,15.6
548,25.0
360,25.0
399,0.0
1035,5662950.113173601
2,1, 8,21, 0,17,30.00,45.00,SummerDesignDay
7,31.348000000000004
8,0.8849400000000001
211,25.000157089685275
212,42.82488838390363
547,15.6
548,25.0
360,25.0
399,0.0
1035,5612190.175122133
2,1, 8,21, 0,17,45.00,60.00,SummerDesignDay
7,31.206000000000004
8,0.8849400000000001
211,25.00018250717245
212,41.698085018633729
547,15.6
548,25.0
360,25.0
399,0.0
1035,5537779.4180095
2,1, 8,21, 0,18, 0.00,15.00,SummerDesignDay
7,31.0285
8,1.6593
211,25.000162207305615
212,40.52062563773903
547,15.6
548,25.0
360,25.0
399,0.0
1035,5593455.476635513
2,1, 8,21, 0,18,15.00,30.00,SummerDesignDay
7,30.851000000000004
8,1.6593
211,25.00016510903643
212,39.42790525906509
547,15.6
548,25.0
360,25.0
399,0.0
1035,5518802.123727945
2,1, 8,21, 0,18,30.00,45.00,SummerDesignDay
7,30.673500000000005
8,1.6593
211,25.000192939395445
212,38.07417862059988
547,15.6
548,25.0
360,25.0
399,0.0
1035,5403845.529885121
2,1, 8,21, 0,18,45.00,60.00,SummerDesignDay
7,30.496000000000003
8,1.6593
211,25.000234162922657
212,36.829972407952379
547,15.6
548,25.0
360,25.0
399,0.0
1035,5246793.503742496
2,1, 8,21, 0,19, 0.00,15.00,SummerDesignDay
7,30.229750000000004
8,2.69079
211,25.00025804884117
212,35.61392565395576
547,15.6
548,25.0
360,25.0
399,0.0
1035,5162392.734699389
2,1, 8,21, 0,19,15.00,30.00,SummerDesignDay
7,29.963500000000005
8,2.69079
211,25.000324156540747
212,34.246773824136187
547,15.6
548,25.0
360,25.0
399,0.0
1035,4880912.670353597
2,1, 8,21, 0,19,30.00,45.00,SummerDesignDay
7,29.697250000000005
8,2.69079
211,25.000393939915744
212,33.00231836838509
547,15.6
548,25.0
360,25.0
399,0.0
1035,4541618.712913432
2,1, 8,21, 0,19,45.00,60.00,SummerDesignDay
7,29.431000000000006
8,2.69079
211,25.000556896329728
212,31.987250494353739
547,15.6
548,25.0
360,25.0
399,0.0
1035,4246950.651879492
2,1, 8,21, 0,20, 0.00,15.00,SummerDesignDay
7,29.235750000000004
8,2.69079
211,24.99998621163454
212,30.836142464432326
547,15.6
548,25.0
360,25.0
399,0.0
1035,4079682.1232164904
2,1, 8,21, 0,20,15.00,30.00,SummerDesignDay
7,29.0405
8,2.69079
211,24.999975146191969
212,29.978866211832245
547,15.6
548,25.0
360,25.0
399,0.0
1035,3919013.285666359
2,1, 8,21, 0,20,30.00,45.00,SummerDesignDay
7,28.845250000000005
8,2.69079
211,25.000000360373869
212,29.38890628364311
547,15.6
548,25.0
360,24.999999999999998
399,0.0
1035,3745558.9876572347
2,1, 8,21, 0,20,45.00,60.00,SummerDesignDay
7,28.650000000000003
8,2.69079
211,24.999974442847248