Program Version,EnergyPlus, Version 9.4.0-998c4b761e, YMD=2021.06.15 10:51
1,5,Environment Title[],Latitude[deg],Longitude[deg],Time Zone[],Elevation[m]
2,8,Day of Simulation[],Month[],Day of Month[],DST Indicator[1=yes 0=no],Hour[],StartMinute[],EndMinute[],DayType
3,5,Cumulative Day of Simulation[],Month[],Day of Month[],DST Indicator[1=yes 0=no],DayType  ! When Daily Report Variables Requested
4,2,Cumulative Days of Simulation[],Month[]  ! When Monthly Report Variables Requested
5,1,Cumulative Days of Simulation[] ! When Run Period Report Variables Requested
6,1,Calendar Year of Simulation[] ! When Annual Report Variables Requested
7,1,Environment,Site Outdoor Air Drybulb Temperature [C] !TimeStep
8,1,LIVING_UNIT1,Zone People Occupant Count [] !TimeStep
211,1,LIVING_UNIT1,Zone Mean Air Temperature [C] !TimeStep
212,1,ATTIC_UNIT1,Zone Mean Air Temperature [C] !TimeStep
250,1,LIVING_UNIT1,Zone Air System Sensible Heating Energy [J] !TimeStep
323,1,LIVING_UNIT1,Zone Air System Sensible Cooling Energy [J] !TimeStep
360,1,LIVING_UNIT1,Zone Thermostat Cooling Setpoint Temperature [C] !TimeStep
361,1,ATTIC_UNIT1,Zone Air System Sensible Heating Energy [J] !TimeStep
386,1,ATTIC_UNIT1,Zone Air System Sensible Cooling Energy [J] !TimeStep
399,1,ATTIC_UNIT1,Zone Thermostat Cooling Setpoint Temperature [C] !TimeStep
547,1,HTGSETP_SCH,Schedule Value [] !TimeStep
548,1,CLGSETP_SCH,Schedule Value [] !TimeStep
612,1,MAIN ELECTRIC HEATING COIL_UNIT1,Heating Coil Heating Energy [J] !Hourly
664,1,DX COOLING COIL_UNIT1,Cooling Coil Total Cooling Energy [J] !TimeStep
1035,1,CENTRAL SYSTEM_UNIT1,Air System Electricity Energy [J] !TimeStep
1039,1,Averaged Building Temperature,PythonPlugin:OutputVariable [C] !TimeStep
End of Data Dictionary
1,HONOLULU INTL ARPT ANN HTG 99.6% CONDNS DB,  30.29, -97.74,  -6.00, 213.00
2,1, 2,21, 0, 1, 0.00,15.00,WinterDesignDay
7,16.2
8,3.0
211,19.45643775338307
212,11.945347315313378
547,15.0
548,23.3
1039,0.0
250,0.0
323,0.0
360,23.3
361,0.0
386,0.0
399,0.0
664,0.0
1035,0.0
2,1, 2,21, 0, 1,15.00,30.00,WinterDesignDay
7,16.2
8,3.0
211,19.411456389228705
212,11.94612813133242
547,15.0
548,23.3
1039,0.0
250,0.0
323,0.0
360,23.3
361,0.0
386,0.0
399,0.0
664,0.0
1035,0.0
2,1, 2,21, 0, 1,30.00,45.00,WinterDesignDay
7,16.2
8,3.0
211,19.3725591262091
212,11.946673388084023
547,15.0
548,23.3
1039,0.0
250,0.0
323,0.0
360,23.3
361,0.0
386,0.0
399,0.0
664,0.0
1035,0.0
2,1, 2,21, 0, 1,45.00,60.00,WinterDesignDay
7,16.2
8,3.0
211,19.340890258139486
212,11.946987388318698
547,15.0
548,23.3
1039,0.0
250,0.0
323,0.0
360,23.3
361,0.0
386,0.0
399,0.0
664,0.0
1035,0.0
2,1, 2,21, 0, 1, 0.00,60.00,WinterDesignDay
612,0.0
2,1, 2,21, 0, 2, 0.00,15.00,WinterDesignDay
7,16.2
8,2.69079
211,19.293279902121307
212,11.947080763951995
547,15.0
548,23.3
1039,0.0
250,0.0
323,0.0
360,23.3
361,0.0
386,0.0
399,0.0
664,0.0
1035,0.0
2,1, 2,21, 0, 2,15.00,30.00,WinterDesignDay
7,16.2
8,2.69079
211,19.244722121263427
212,11.94696519445951
547,15.0
548,23.3
1039,0.0
250,0.0
323,0.0
360,23.3
361,0.0
386,0.0
399,0.0
664,0.0
1035,0.0
2,1, 2,21, 0, 2,30.00,45.00,WinterDesignDay
7,16.2
8,2.69079
211,19.205566459570595
212,11.946654336118126
547,15.0
548,23.3
1039,0.0
250,0.0
323,0.0
360,23.3
361,0.0
386,0.0
399,0.0
664,0.0
1035,0.0
2,1, 2,21, 0, 2,45.00,60.00,WinterDesignDay
7,16.2
8,2.69079
211,19.17529715854403
212,11.946164135448952
547,15.0
548,23.3
1039,0.0
250,0.0
323,0.0
360,23.3
361,0.0
386,0.0
399,0.0
664,0.0
1035,0.0
2,1, 2,21, 0, 2, 0.00,60.00,WinterDesignDay
612,0.0
2,1, 2,21, 0, 3, 0.00,15.00,WinterDesignDay
7,16.2
8,3.0
211,19.16447377475916
212,11.945511842029351
547,15.0
548,23.3
1039,0.0
250,0.0
323,0.0
360,23.3
361,0.0
386,0.0
399,0.0
664,0.0
1035,0.0
2,1, 2,21, 0, 3,15.00,30.00,WinterDesignDay
7,16.2
8,3.0
211,19.155858925457254
212,11.94472738779911
547,15.0
548,23.3
1039,0.0
250,0.0
323,0.0
360,23.3
361,0.0
386,0.0
399,0.0
664,0.0
1035,0.0
2,1, 2,21, 0, 3,30.00,45.00,WinterDesignDay
7,16.2
8,3.0
211,19.141032308477567
212,11.943823425569376
547,15.0
548,23.3
1039,0.0
250,0.0
323,0.0
360,23.3
361,0.0
386,0.0
399,0.0
664,0.0
1035,0.0
2,1, 2,21, 0, 3,45.00,60.00,WinterDesignDay
7,16.2
8,3.0
211,19.12176188633987
212,11.942809112567988
547,15.0
548,23.3
1039,0.0
250,0.0
323,0.0
360,23.3
361,0.0
386,0.0
399,0.0
664,0.0
1035,0.0
2,1, 2,21, 0, 3, 0.00,60.00,WinterDesignDay
612,0.0
2,1, 2,21, 0, 4, 0.00,15.00,WinterDesignDay
7,16.2
8,2.69079
211,19.08549357685654
212,11.941702731082275
547,15.0
548,23.3
1039,0.0
250,0.0
323,0.0
360,23.3
361,0.0
386,0.0
399,0.0
664,0.0
1035,0.0
2,1, 2,21, 0, 4,15.00,30.00,WinterDesignDay
7,16.2
8,2.69079
211,19.04949733655768
212,11.940526852162334
547,15.0
548,23.3
1039,0.0
250,0.0
323,0.0
360,23.3
361,0.0
386,0.0
399,0.0
664,0.0
1035,0.0
2,1, 2,21, 0, 4,30.00,45.00,WinterDesignDay
7,16.2
8,2.69079
211,19.02256687552626
212,11.939302150497446
547,15.0
548,23.3
1039,0.0
250,0.0
323,0.0
360,23.3
361,0.0
386,0.0
399,0.0
664,0.0
1035,0.0
2,1, 2,21, 0, 4,45.00,60.00,WinterDesignDay
7,16.2
8,2.69079
211,19.00293332794949
212,11.938045322727698
547,15.0
548,23.3
1039,0.0
250,0.0
323,0.0
360,23.3
361,0.0
386,0.0
399,0.0
664,0.0
1035,0.0
2,1, 2,21, 0, 4, 0.00,60.00,WinterDesignDay
612,0.0
2,1, 2,21, 0, 5, 0.00,15.00,WinterDesignDay
7,16.2
8,3.0
211,19.00878975360277
212,11.936808433866414
547,15.0
548,23.3
1039,0.0
250,0.0
323,0.0
360,23.3
361,0.0
386,0.0
399,0.0
664,0.0
1035,0.0
2,1, 2,21, 0, 5,15.00,30.00,WinterDesignDay
7,16.2
8,3.0
211,19.018249718814265
212,11.935580366313049
547,15.0
548,23.3
1039,0.0
250,0.0
323,0.0
360,23.3
361,0.0
386,0.0
399,0.0
664,0.0
1035,0.0
2,1, 2,21, 0, 5,30.00,45.00,WinterDesignDay
7,16.2
8,3.0
211,19.0187554100926
212,11.934336973676395
547,15.0
548,23.3
1039,0.0
250,0.0
323,0.0
360,23.3
361,0.0
386,0.0
399,0.0
664,0.0
1035,0.0
2,1, 2,21, 0, 5,45.00,60.00,WinterDesignDay
7,16.2
8,3.0
211,19.011764152443065
212,11.93308515974859
547,15.0
548,23.3
1039,0.0
250,0.0
323,0.0
360,23.3
361,0.0
386,0.0
399,0.0
664,0.0
1035,0.0
2,1, 2,21, 0, 5, 0.00,60.00,WinterDesignDay
612,0.0
2,1, 2,21, 0, 6, 0.00,15.00,WinterDesignDay
7,16.2
8,2.69079
211,19.00599576250074
212,11.931806568120545
547,15.0
548,23.3
1039,0.0
250,0.0
323,0.0
360,23.3
361,0.0
386,0.0
399,0.0
664,0.0
1035,0.0
2,1, 2,21, 0, 6,15.00,30.00,WinterDesignDay
7,16.2
8,2.69079
211,19.0065100058716
212,11.930657054114354
547,15.0
548,23.3
1039,0.0
250,0.0
323,0.0
360,23.3
361,0.0
386,0.0
399,0.0
664,0.0
1035,0.0
2,1, 2,21, 0, 6,30.00,45.00,WinterDesignDay
7,16.2
8,2.69079
211,19.010396270663145
212,11.929623963312136
547,15.0
548,23.3
1039,0.0
250,0.0
323,0.0
360,23.3
361,0.0
386,0.0
399,0.0
664,0.0
1035,0.0
2,1, 2,21, 0, 6,45.00,60.00,WinterDesignDay
7,16.2
8,2.69079
211,19.014686481280536
212,11.928621794353268
547,15.0
548,23.3
1039,0.0
250,0.0
323,0.0
360,23.3
361,0.0
386,0.0
399,0.0
664,0.0
1035,0.0
2,1, 2,21, 0, 6, 0.00,60.00,WinterDesignDay
612,0.0
2,1, 2,21, 0, 7, 0.00,15.00,WinterDesignDay
7,16.2
8,3.0
211,19.04699605682646
212,11.927533537144049
547,15.0
548,23.3
1039,0.0
250,0.0
323,0.0
360,23.3
361,0.0
386,0.0
399,0.0
664,0.0
1035,0.0
2,1, 2,21, 0, 7,15.00,30.00,WinterDesignDay
7,16.2
8,3.0
211,19.08411471790336
212,11.926465953632219
547,15.0
548,23.3
1039,0.0
250,0.0
323,0.0
360,23.3
361,0.0
386,0.0
399,0.0
664,0.0
1035,0.0
2,1, 2,21, 0, 7,30.00,45.00,WinterDesignDay
7,16.2
8,3.0
211,19.110140214225276
212,11.925538548688652
547,15.0
548,23.3
1039,0.0
250,0.0
323,0.0
360,23.3
361,0.0
386,0.0
399,0.0
664,0.0
1035,0.0
2,1, 2,21, 0, 7,45.00,60.00,WinterDesignDay
7,16.2
8,3.0
211,19.12554110990754
212,11.924763508836629
547,15.0
548,23.3
1039,0.0
250,0.0
323,0.0
360,23.3
361,0.0
386,0.0
399,0.0
664,0.0
1035,0.0
2,1, 2,21, 0, 7, 0.00,60.00,WinterDesignDay
612,0.0
2,1, 2,21, 0, 8, 0.00,15.00,WinterDesignDay
7,16.2
8,2.6493
211,19.12146678185628
212,11.9241166345788
547,15.0
548,23.3
1039,0.0
250,0.0
323,0.0
360,23.3
361,0.0
386,0.0
399,0.0
664,0.0
1035,0.0
2,1, 2,21, 0, 8,15.00,30.00,WinterDesignDay
7,16.2
8,2.6493
211,19.117995454581626
212,11.923590084886684
547,15.0
548,23.3
1039,0.0
250,0.0
323,0.0
360,23.3
361,0.0
386,0.0
399,0.0
664,0.0
1035,0.0
2,1, 2,21, 0, 8,30.00,45.00,WinterDesignDay
7,16.2
8,2.6493
211,19.124063174678225
212,11.923197639696327
547,15.0
548,23.3
1039,0.0
250,0.0
323,0.0
360,23.3
361,0.0
386,0.0
399,0.0
664,0.0
1035,0.0
2,1, 2,21, 0, 8,45.00,60.00,WinterDesignDay
7,16.2
8,2.6493
211,19.135278378621444
212,11.922932536590004
547,15.0
548,23.3
1039,0.0
250,0.0
323,0.0
360,23.3
361,0.0
386,0.0
399,0.0
664,0.0
1035,0.0
2,1, 2,21, 0, 8, 0.00,60.00,WinterDesignDay
612,0.0
2,1, 2,21, 0, 9, 0.00,15.00,WinterDesignDay
7,16.2
8,1.22583
211,19.051618148029197
212,11.922778119786808
547,15.0
548,23.3
1039,0.0
250,0.0
323,0.0
360,23.3
361,0.0
386,0.0
399,0.0
664,0.0
1035,0.0
2,1, 2,21, 0, 9,15.00,30.00,WinterDesignDay
7,16.2
8,1.22583
211,18.952361095947066
212,11.922728233391622
547,15.0
548,23.3
1039,0.0
250,0.0
323,0.0
360,23.3
361,0.0
386,0.0
399,0.0
664,0.0
1035,0.0
2,1, 2,21, 0, 9,30.00,45.00,WinterDesignDay
7,16.2
8,1.22583
211,18.892408256862205
212,11.92277118635013
547,15.0
548,23.3
1039,0.0
250,0.0
323,0.0
360,23.3
361,0.0
386,0.0
399,0.0
664,0.0
1035,0.0
2,1, 2,21, 0, 9,45.00,60.00,WinterDesignDay
7,16.2
8,1.22583
211,18.868287064901307
212,11.922880775030763
547,15.0
548,23.3
1039,0.0
250,0.0
323,0.0
360,23.3
361,0.0
386,0.0
399,0.0
664,0.0
1035,0.0
2,1, 2,21, 0, 9, 0.00,60.00,WinterDesignDay
612,0.0
2,1, 2,21, 0,10, 0.00,15.00,WinterDesignDay
7,16.2
8,0.72567
211,18.82061211626137
212,11.92302212194706
547,15.0
548,23.3
1039,0.0
250,0.0
323,0.0
360,23.3
361,0.0
386,0.0
399,0.0
664,0.0
1035,0.0
2,1, 2,21, 0,10,15.00,30.00,WinterDesignDay
7,16.2
8,0.72567
211,18.766984399152464
212,11.92315952293022
547,15.0
548,23.3
1039,0.0
250,0.0
323,0.0
360,23.3
361,0.0
386,0.0
399,0.0
664,0.0
1035,0.0
2,1, 2,21, 0,10,30.00,45.00,WinterDesignDay
7,16.2
8,0.72567
211,18.724946886566288
212,11.923260645605972
547,15.0
548,23.3
1039,0.0
250,0.0
323,0.0
360,23.3
361,0.0
386,0.0
399,0.0
664,0.0
1035,0.0
2,1, 2,21, 0,10,45.00,60.00,WinterDesignDay
7,16.2
8,0.72567
211,18.696535173621919
212,11.923298307561053
547,15.0
548,23.3
1039,0.0
250,0.0
323,0.0
360,23.3
361,0.0
386,0.0
399,0.0
664,0.0
1035,0.0
2,1, 2,21, 0,10, 0.00,60.00,WinterDesignDay
612,0.0
2,1, 2,21, 0,11, 0.00,15.00,WinterDesignDay
7,16.2
8,0.72567
211,18.67678860594527
212,11.92325187481798
547,15.0
548,23.3
1039,0.0
250,0.0
323,0.0
360,23.3
361,0.0
386,0.0
399,0.0
664,0.0
1035,0.0
2,1, 2,21, 0,11,15.00,30.00,WinterDesignDay
7,16.2
8,0.72567
211,18.65930915242482
212,11.92310815312775
547,15.0
548,23.3
1039,0.0
250,0.0
323,0.0
360,23.3
361,0.0
386,0.0
399,0.0
664,0.0
1035,0.0
2,1, 2,21, 0,11,30.00,45.00,WinterDesignDay
7,16.2
8,0.72567
211,18.641692609441493
212,11.922861329899304
547,15.0
548,23.3
1039,0.0
250,0.0
323,0.0
360,23.3
361,0.0
386,0.0
399,0.0
664,0.0
1035,0.0
2,1, 2,21, 0,11,45.00,60.00,WinterDesignDay
7,16.2
8,0.72567
211,18.624207732847404
212,11.922512150161927
547,15.0
548,23.3
1039,0.0
250,0.0
323,0.0
360,23.3
361,0.0
386,0.0
399,0.0
664,0.0
1035,0.0
2,1, 2,21, 0,11, 0.00,60.00,WinterDesignDay
612,0.0
2,1, 2,21, 0,12, 0.00,15.00,WinterDesignDay
7,16.2
8,0.72567
211,18.608059858347759
212,11.9220666122742
547,15.0
548,23.3
1039,0.0
250,0.0
323,0.0
360,23.3
361,0.0
386,0.0
399,0.0
664,0.0
1035,0.0
2,1, 2,21, 0,12,15.00,30.00,WinterDesignDay
7,16.2
8,0.72567
211,18.594289766801773
212,11.921534396186848
547,15.0
548,23.3
1039,0.0
250,0.0
323,0.0
360,23.3
361,0.0
386,0.0
399,0.0
664,0.0
1035,0.0
2,1, 2,21, 0,12,30.00,45.00,WinterDesignDay
7,16.2
8,0.72567
211,18.58150881323704
212,11.920927302197404
547,15.0
548,23.3
1039,0.0
250,0.0
323,0.0
360,23.3
361,0.0
386,0.0
399,0.0
664,0.0
1035,0.0
2,1, 2,21, 0,12,45.00,60.00,WinterDesignDay
7,16.2
8,0.72567
211,18.568930208105564
212,11.92025794987645
547,15.0
548,23.3
1039,0.0
250,0.0
323,0.0
360,23.3
361,0.0
386,0.0
399,0.0
664,0.0
1035,0.0
2,1, 2,21, 0,12, 0.00,60.00,WinterDesignDay
612,0.0
2,1, 2,21, 0,13, 0.00,15.00,WinterDesignDay
7,16.2
8,0.72567
211,18.555874669000127
212,11.919538853254388
547,15.0
548,23.3
1039,0.0
250,0.0
323,0.0
360,23.3
361,0.0
386,0.0
399,0.0
664,0.0
1035,0.0
2,1, 2,21, 0,13,15.00,30.00,WinterDesignDay
7,16.2
8,0.72567
211,18.54323943420463
212,11.918805727722678
547,15.0
548,23.3
1039,0.0
250,0.0
323,0.0
360,23.3
361,0.0
386,0.0
399,0.0
664,0.0
1035,0.0
2,1, 2,21, 0,13,30.00,45.00,WinterDesignDay
7,16.2
8,0.72567
211,18.531590197527636
212,11.918056993449609
547,15.0
548,23.3
1039,0.0
250,0.0
323,0.0
360,23.3
361,0.0
386,0.0
399,0.0
664,0.0
1035,0.0
2,1, 2,21, 0,13,45.00,60.00,WinterDesignDay
7,16.2
8,0.72567
211,18.522164421370115
212,11.917282129647777
547,15.0
548,23.3
1039,0.0
250,0.0
323,0.0
360,23.3
361,0.0
386,0.0
399,0.0
664,0.0
1035,0.0
2,1, 2,21, 0,13, 0.00,60.00,WinterDesignDay
612,0.0
2,1, 2,21, 0,14, 0.00,15.00,WinterDesignDay
7,16.2
8,0.72567
211,18.51453177720196
212,11.916487203823092
547,15.0
548,23.3
1039,0.0
250,0.0
323,0.0
360,23.3
361,0.0
386,0.0
399,0.0
664,0.0
1035,0.0
2,1, 2,21, 0,14,15.00,30.00,WinterDesignDay
7,16.2
8,0.72567
211,18.50684383948696
212,11.915684852913492
547,15.0
548,23.3
1039,0.0
250,0.0
323,0.0
360,23.3
361,0.0
386,0.0
399,0.0
664,0.0
1035,0.0
2,1, 2,21, 0,14,30.00,45.00,WinterDesignDay
7,16.2
8,0.72567
211,18.498609214930405
212,11.91488398814846
547,15.0
548,23.3
1039,0.0
250,0.0
323,0.0
360,23.3
361,0.0
386,0.0
399,0.0
664,0.0
1035,0.0
2,1, 2,21, 0,14,45.00,60.00,WinterDesignDay
7,16.2
8,0.72567
211,18.49022217079061
212,11.914089563677584
547,15.0
548,23.3
1039,0.0
250,0.0
323,0.0
360,23.3
361,0.0
386,0.0
399,0.0
664,0.0
1035,0.0
2,1, 2,21, 0,14, 0.00,60.00,WinterDesignDay
612,0.0
2,1, 2,21, 0,15, 0.00,15.00,WinterDesignDay
7,16.2
8,0.72567
211,18.484183713957589
212,11.913305419047344
547,15.0
548,23.3
1039,0.0
250,0.0
323,0.0
360,23.3
361,0.0
386,0.0
399,0.0
664,0.0
1035,0.0
2,1, 2,21, 0,15,15.00,30.00,WinterDesignDay
7,16.2
8,0.72567
211,18.479073950768759
212,11.912535344170048
547,15.0
548,23.3
1039,0.0
250,0.0
323,0.0
360,23.3
361,0.0
386,0.0
399,0.0
664,0.0
1035,0.0
2,1, 2,21, 0,15,30.00,45.00,WinterDesignDay
7,16.2
8,0.72567
211,18.474431537128028
212,11.911782867414344
547,15.0
548,23.3
1039,0.0
250,0.0
323,0.0
360,23.3
361,0.0
386,0.0
399,0.0
664,0.0
1035,0.0
2,1, 2,21, 0,15,45.00,60.00,WinterDesignDay
7,16.2
8,0.72567
211,18.470171947342626
212,11.911051052249034
547,15.0
548,23.3
1039,0.0
250,0.0
323,0.0
360,23.3
361,0.0
386,0.0
399,0.0
664,0.0
1035,0.0
2,1, 2,21, 0,15, 0.00,60.00,WinterDesignDay
612,0.0
2,1, 2,21, 0,16, 0.00,15.00,WinterDesignDay
7,16.2
8,0.72567
211,18.47464942415533
212,11.910342448018215
547,15.0
548,23.3
1039,0.0
250,0.0
323,0.0
360,23.3
361,0.0
386,0.0
399,0.0
664,0.0
1035,0.0
2,1, 2,21, 0,16,15.00,30.00,WinterDesignDay
7,16.2
8,0.72567
211,18.4819644072109
212,11.909704847440125
547,15.0
548,23.3
1039,0.0
250,0.0
323,0.0
360,23.3
361,0.0
386,0.0
399,0.0
664,0.0
1035,0.0
2,1, 2,21, 0,16,30.00,45.00,WinterDesignDay
7,16.2
8,0.72567
211,18.48694600657616
212,11.909117779910327
547,15.0
548,23.3
1039,0.0
250,0.0
323,0.0
360,23.3
361,0.0
386,0.0
399,0.0
664,0.0
1035,0.0
2,1, 2,21, 0,16,45.00,60.00,WinterDesignDay
7,16.2
8,0.72567
211,18.488996512331967
212,11.908546201860766
547,15.0
548,23.3
1039,0.0
250,0.0
323,0.0
360,23.3
361,0.0
386,0.0
399,0.0
664,0.0
1035,0.0
2,1, 2,21, 0,16, 0.00,60.00,WinterDesignDay
612,0.0
2,1, 2,21, 0,17, 0.00,15.00,WinterDesignDay
7,16.2
8,0.8849400000000001
211,18.52602880010956
212,11.907920349368073
547,15.0
548,23.3
1039,0.0
250,0.0
323,0.0
360,23.3
361,0.0
386,0.0
399,0.0
664,0.0
1035,0.0
2,1, 2,21, 0,17,15.00,30.00,WinterDesignDay
7,16.2
8,0.8849400000000001
211,18.57361961839983
212,11.907312775883776
547,15.0
548,23.3
1039,0.0
250,0.0
323,0.0
360,23.3
361,0.0
386,0.0
399,0.0
664,0.0
1035,0.0
2,1, 2,21, 0,17,30.00,45.00,WinterDesignDay
7,16.2
8,0.8849400000000001
211,18.611098263261878
212,11.906794798624582
547,15.0
548,23.3
1039,0.0
250,0.0
323,0.0
360,23.3
361,0.0
386,0.0
399,0.0
664,0.0
1035,0.0
2,1, 2,21, 0,17,45.00,60.00,WinterDesignDay
7,16.2
8,0.8849400000000001
211,18.637022217127723
212,11.906376723416596
547,15.0
548,23.3
1039,0.0
250,0.0
323,0.0
360,23.3
361,0.0
386,0.0
399,0.0
664,0.0
1035,0.0
2,1, 2,21, 0,17, 0.00,60.00,WinterDesignDay
612,0.0
2,1, 2,21, 0,18, 0.00,15.00,WinterDesignDay
7,16.2
8,1.6593
211,18.725718385979105
212,11.906053346645548
547,15.0
548,23.3
1039,0.0
250,0.0
323,0.0
360,23.3
361,0.0
386,0.0
399,0.0
664,0.0
1035,0.0
2,1, 2,21, 0,18,15.00,30.00,WinterDesignDay
7,16.2
8,1.6593
211,18.82532197071465
212,11.905839056101332
547,15.0
548,23.3
1039,0.0
250,0.0
323,0.0
360,23.3
361,0.0
386,0.0
399,0.0
664,0.0
1035,0.0
2,1, 2,21, 0,18,30.00,45.00,WinterDesignDay
7,16.2
8,1.6593
211,18.898939667421666
212,11.905756431091687
547,15.0
548,23.3
1039,0.0
250,0.0
323,0.0
360,23.3
361,0.0
386,0.0
399,0.0
664,0.0
1035,0.0
2,1, 2,21, 0,18,45.00,60.00,WinterDesignDay
7,16.2
8,1.6593
211,18.947435463640049
212,11.905826665003433
547,15.0
548,23.3
1039,0.0
250,0.0
323,0.0
360,23.3
361,0.0
386,0.0
399,0.0
664,0.0
1035,0.0
2,1, 2,21, 0,18, 0.00,60.00,WinterDesignDay
612,0.0
2,1, 2,21, 0,19, 0.00,15.00,WinterDesignDay
7,16.2
8,2.69079
211,19.056649924649418
212,11.906068732242059
547,15.0
548,23.3
1039,0.0
250,0.0
323,0.0
360,23.3
361,0.0
386,0.0
399,0.0
664,0.0
1035,0.0
2,1, 2,21, 0,19,15.00,30.00,WinterDesignDay
7,16.2
8,2.69079
211,19.172207696650959
212,11.906497512326676
547,15.0
548,23.3
1039,0.0
250,0.0
323,0.0
360,23.3
361,0.0
386,0.0
399,0.0
664,0.0
1035,0.0
2,1, 2,21, 0,19,30.00,45.00,WinterDesignDay
7,16.2
8,2.69079
211,19.25826141457495
212,11.907123056746336
547,15.0
548,23.3
1039,0.0
250,0.0
323,0.0
360,23.3
361,0.0
386,0.0
399,0.0
664,0.0
1035,0.0
2,1, 2,21, 0,19,45.00,60.00,WinterDesignDay
7,16.2
8,2.69079
211,19.316848838084593
212,11.907952040989502
547,15.0
548,23.3
1039,0.0
250,0.0
323,0.0
360,23.3
361,0.0
386,0.0
399,0.0
664,0.0
1035,0.0
2,1, 2,21, 0,19, 0.00,60.00,WinterDesignDay
612,0.0
2,1, 2,21, 0,20, 0.00,15.00,WinterDesignDay
7,16.2
8,2.69079
211,19.369062599979018
212,11.908988190668954
547,15.0
548,23.3
1039,0.0
250,0.0
323,0.0
360,23.3
361,0.0
386,0.0
399,0.0
664,0.0
1035,0.0
2,1, 2,21, 0,20,15.00,30.00,WinterDesignDay
7,16.2
8,2.69079
211,19.419211543509236
212,11.910230849853715
547,15.0
548,23.3
1039,0.0
250,0.0
323,0.0
360,23.3
361,0.0
386,0.0
399,0.0
664,0.0
1035,0.0
2,1, 2,21, 0,20,30.00,45.00,WinterDesignDay
7,16.2
8,2.69079
211,19.465894753409616
212,11.91167329333826
547,15.0
548,23.3
1039,0.0
250,0.0
323,0.0
360,23.3
361,0.0
386,0.0
399,0.0
664,0.0
1035,0.0
2,1, 2,21, 0,20,45.00,60.00,WinterDesignDay
7,16.2
8,2.69079
211,19.50939576766905
212,11.913302029269703
547,15.0
548,23.3
1039,0.0
250,0.0
323,0.0
360,23.3
361,0.0
386,0.0
399,0.0
664,0.0
1035,0.0
2,1, 2,21, 0,20, 0.00,60.00,WinterDesignDay
612,0.0
2,1, 2,21, 0,21, 0.00,15.00,WinterDesignDay
7,16.2
8,2.69079
211,19.550691645156364
212,11.915097426562623
547,15.0
548,23.3
1039,0.0
250,0.0
323,0.0
360,23.3
361,0.0
386,0.0
399,0.0
664,0.0
1035,0.0
2,1, 2,21, 0,21,15.00,30.00,WinterDesignDay
7,16.2
8,2.69079
211,19.58810371590119
212,11.917035413856347
547,15.0
548,23.3
1039,0.0
250,0.0
323,0.0
360,23.3
361,0.0
386,0.0
399,0.0
664,0.0
1035,0.0
2,1, 2,21, 0,21,30.00,45.00,WinterDesignDay
7,16.2
8,2.69079
211,19.621706295117787
212,11.919089463548073
547,15.0
548,23.3
1039,0.0
250,0.0
323,0.0
360,23.3
361,0.0
386,0.0
399,0.0
664,0.0
1035,0.0
2,1, 2,21, 0,21,45.00,60.00,WinterDesignDay
7,16.2
8,2.69079
211,19.652541000846573
212,11.921232433639386
547,15.0
548,23.3
1039,0.0
250,0.0
323,0.0
360,23.3
361,0.0
386,0.0
399,0.0
664,0.0
1035,0.0
2,1, 2,21, 0,21, 0.00,60.00,WinterDesignDay
612,0.0
2,1, 2,21, 0,22, 0.00,15.00,WinterDesignDay
7,16.2
8,3.0
211,19.678637244360723
212,11.923340458458908
547,15.0
548,23.3
1039,0.0
250,0.0
323,0.0
360,23.3
361,0.0
386,0.0
399,0.0
664,0.0
1035,0.0
2,1, 2,21, 0,22,15.00,30.00,WinterDesignDay
7,16.2
8,3.0
211,19.699330082387385
212,11.925511219015565
547,15.0
548,23.3
1039,0.0
250,0.0
323,0.0
360,23.3
361,0.0
386,0.0
399,0.0
664,0.0
1035,0.0
2,1, 2,21, 0,22,30.00,45.00,WinterDesignDay
7,16.2
8,3.0
211,19.7161167600025
212,11.92776102573868
547,15.0
548,23.3
1039,0.0
250,0.0
323,0.0
360,23.3
361,0.0
386,0.0
399,0.0
664,0.0
1035,0.0
2,1, 2,21, 0,22,45.00,60.00,WinterDesignDay
7,16.2
8,3.0
211,19.730922681124377
212,11.93001181774034
547,15.0
548,23.3
1039,0.0
250,0.0
323,0.0
360,23.3
361,0.0
386,0.0
399,0.0
664,0.0
1035,0.0
2,1, 2,21, 0,22, 0.00,60.00,WinterDesignDay
612,0.0
2,1, 2,21, 0,23, 0.00,15.00,WinterDesignDay
7,16.2
8,2.69079
211,19.69666053559196
212,11.93224020767093
547,15.0
548,23.3
1039,0.0
250,0.0
323,0.0
360,23.3
361,0.0
386,0.0
399,0.0
664,0.0
1035,0.0
2,1, 2,21, 0,23,15.00,30.00,WinterDesignDay
7,16.2
8,2.69079
211,19.64894037737556
212,11.93431761939947
547,15.0
548,23.3
1039,0.0
250,0.0
323,0.0
360,23.3
361,0.0
386,0.0
399,0.0
664,0.0
1035,0.0
2,1, 2,21, 0,23,30.00,45.00,WinterDesignDay
7,16.2
8,2.69079
211,19.61513148621241
212,11.936319487296029
547,15.0
548,23.3
1039,0.0
250,0.0
323,0.0
360,23.3
361,0.0
386,0.0
399,0.0
664,0.0
1035,0.0
2,1, 2,21, 0,23,45.00,60.00,WinterDesignDay
7,16.2
8,2.69079
211,19.59740083844221
212,11.938258653234316
547,15.0
548,23.3
1039,0.0
250,0.0
323,0.0
360,23.3
361,0.0
386,0.0
399,0.0
664,0.0
1035,0.0
2,1, 2,21, 0,23, 0.00,60.00,WinterDesignDay
612,0.0
2,1, 2,21, 0,24, 0.00,15.00,WinterDesignDay
7,16.2
8,3.0
211,19.57714722075836
212,11.94008893192506
547,15.0
548,23.3
1039,0.0
250,0.0
323,0.0
360,23.3
361,0.0
386,0.0
399,0.0
664,0.0
1035,0.0
2,1, 2,21, 0,24,15.00,30.00,WinterDesignDay
7,16.2
8,3.0
211,19.550836651717924
212,11.941723685913166
547,15.0
548,23.3
1039,0.0
250,0.0
323,0.0
360,23.3
361,0.0
386,0.0
399,0.0
664,0.0
1035,0.0
2,1, 2,21, 0,24,30.00,45.00,WinterDesignDay
7,16.2
8,3.0
211,19.523244875269389
212,11.943140065202578
547,15.0
548,23.3
1039,0.0
250,0.0
323,0.0
360,23.3
361,0.0
386,0.0
399,0.0
664,0.0
1035,0.0
2,1, 2,21, 0,24,45.00,60.00,WinterDesignDay
7,16.2
8,3.0
211,19.498078105009836
212,11.94434603728667
547,15.0
548,23.3
1039,0.0
250,0.0
323,0.0
360,23.3
361,0.0
386,0.0
399,0.0
664,0.0
1035,0.0
2,1, 2,21, 0,24, 0.00,60.00,WinterDesignDay
612,0.0
1,HONOLULU INTL ARPT ANN CLG .4% CONDNS DB=>MWB,  30.29, -97.74,  -6.00, 213.00
2,1, 8,21, 0, 1, 0.00,15.00,SummerDesignDay
7,26.271500000000004
8,3.0
211,23.300006302482854
212,24.582956379823437
547,15.0
548,23.3
1039,0.0
250,0.0
323,1470081.3458658246
360,23.3
361,0.0
386,0.0
399,0.0
664,2331143.536421154
1035,652782.8337028734
2,1, 8,21, 0, 1,15.00,30.00,SummerDesignDay
7,26.165000000000004
8,3.0
211,23.30000641562508
212,24.451366097985347
547,15.0
548,23.3
1039,0.0
250,0.0
323,1404111.4245369309
360,23.3
361,0.0
386,0.0
399,0.0
664,2244636.2803429567
1035,628323.1042143677
2,1, 8,21, 0, 1,30.00,45.00,SummerDesignDay
7,26.058500000000003
8,3.0
211,23.300006558652908
212,24.325390107691459
547,15.0
548,23.3
1039,0.0
250,0.0
323,1346419.214766661
360,23.3
361,0.0
386,0.0
399,0.0
664,2169853.5762114829
1035,606933.245138444
2,1, 8,21, 0, 1,45.00,60.00,SummerDesignDay
7,25.952000000000007
8,3.0
211,23.300006631919965
212,24.203730704604256
547,15.0
548,23.3
1039,0.0
250,0.0
323,1293884.946341939
360,23.3
361,0.0
386,0.0
399,0.0
664,2101807.7798925854
1035,587338.8307395761
2,1, 8,21, 0, 1, 0.00,60.00,SummerDesignDay
612,0.0
2,1, 8,21, 0, 2, 0.00,15.00,SummerDesignDay
7,25.881000000000005
8,2.69079
211,23.30000663699268
212,24.090590377889354
547,15.0
548,23.3
1039,0.0
250,0.0
323,1220621.3250167259
360,23.3
361,0.0
386,0.0
399,0.0
664,1997983.0935595365
1035,558835.2649593395
2,1, 8,21, 0, 2,15.00,30.00,SummerDesignDay
7,25.810000000000004
8,2.69079
211,23.300006664036574
212,23.986855572047554
547,15.0
548,23.3
1039,0.0
250,0.0
323,1177025.5606143627
360,23.3
361,0.0
386,0.0
399,0.0
664,1940713.6413047133
1035,542515.6642523876
2,1, 8,21, 0, 2,30.00,45.00,SummerDesignDay
7,25.739000000000006
8,2.69079
211,23.30000669278146
212,23.891178020842355
547,15.0
548,23.3
1039,0.0
250,0.0
323,1137790.845469745
360,23.3
361,0.0
386,0.0
399,0.0
664,1889190.5314892238
1035,527741.0471883596
2,1, 8,21, 0, 2,45.00,60.00,SummerDesignDay
7,25.668000000000004
8,2.69079
211,23.300006721562636
212,23.801320582894726
547,15.0
548,23.3
1039,0.0
250,0.0
323,1101530.277083396
360,23.3
361,0.0
386,0.0
399,0.0
664,1841283.538894571
1035,513955.87808696788
2,1, 8,21, 0, 2, 0.00,60.00,SummerDesignDay
612,0.0
2,1, 8,21, 0, 3, 0.00,15.00,SummerDesignDay
7,25.614750000000006
8,3.0
211,23.300006674291195
212,23.718165027565349
547,15.0
548,23.3
1039,0.0
250,0.0
323,1088124.746780845
360,23.3
361,0.0
386,0.0
399,0.0
664,1830406.2156012513
1035,510094.9086526644
2,1, 8,21, 0, 3,15.00,30.00,SummerDesignDay
7,25.561500000000004
8,3.0
211,23.30000674290389
212,23.64153163263445
547,15.0
548,23.3
1039,0.0
250,0.0
323,1057884.786107289
360,23.3
361,0.0
386,0.0
399,0.0
664,1790244.7771450668
1035,498599.6309904836
2,1, 8,21, 0, 3,30.00,45.00,SummerDesignDay
7,25.508250000000005
8,3.0
211,23.300006755709977
212,23.570611351491264
547,15.0
548,23.3
1039,0.0
250,0.0
323,1030045.8157203727
360,23.3
361,0.0
386,0.0
399,0.0
664,1753058.834132967
1035,487921.0309863098
2,1, 8,21, 0, 3,45.00,60.00,SummerDesignDay
7,25.455000000000007
8,3.0
211,23.300006758187008
212,23.503798327460243
547,15.0
548,23.3
1039,0.0
250,0.0
323,1003991.6701666105
360,23.3
361,0.0
386,0.0
399,0.0
664,1717958.5853700229
1035,477823.2162465473
2,1, 8,21, 0, 3, 0.00,60.00,SummerDesignDay
612,0.0
2,1, 8,21, 0, 4, 0.00,15.00,SummerDesignDay
7,25.401750000000005
8,2.69079
211,23.300006692015477
212,23.439823315876099
547,15.0
548,23.3
1039,0.0
250,0.0
323,957536.5109464569
360,23.3
361,0.0
386,0.0
399,0.0
664,1646975.3925919403
1035,458323.35357425836
2,1, 8,21, 0, 4,15.00,30.00,SummerDesignDay
7,25.3485
8,2.69079
211,23.30000668057596
212,23.37806190152248
547,15.0
548,23.3
1039,0.0
250,0.0
323,933656.4368229375
360,23.3
361,0.0
386,0.0
399,0.0
664,1613868.8793918126
1035,448801.60275360368
2,1, 8,21, 0, 4,30.00,45.00,SummerDesignDay
7,25.295250000000004
8,2.69079
211,23.300006667149149
212,23.31814126875396
547,15.0
548,23.3
1039,0.0
250,0.0
323,911299.1922837667
360,23.3
361,0.0
386,0.0
399,0.0
664,1582761.6838833036
1035,439830.18159588138
2,1, 8,21, 0, 4,45.00,60.00,SummerDesignDay
7,25.242000000000006
8,2.69079
211,23.300006661706143
212,23.259726930232515
547,15.0
548,23.3
1039,0.0
250,0.0
323,890141.6908411698
360,23.3
361,0.0
386,0.0
399,0.0
664,1553140.5643579688
1035,431273.8435135995
2,1, 8,21, 0, 4, 0.00,60.00,SummerDesignDay
612,0.0
2,1, 8,21, 0, 5, 0.00,15.00,SummerDesignDay
7,25.206500000000007
8,3.0
211,23.300006688790977
212,23.20511682536004
547,15.0
548,23.3
1039,0.0
250,0.0
323,904256.9309962308
360,23.3
361,0.0
386,0.0
399,0.0
664,1584578.433848601
1035,438947.7214982465
2,1, 8,21, 0, 5,15.00,30.00,SummerDesignDay
7,25.171000000000004
8,3.0
211,23.300006691780419
212,23.154846565283849
547,15.0
548,23.3
1039,0.0
250,0.0
323,890551.6091127857
360,23.3
361,0.0
386,0.0
399,0.0
664,1566599.778975868
1035,433666.51243653547
2,1, 8,21, 0, 5,30.00,45.00,SummerDesignDay
7,25.135500000000005
8,3.0
211,23.300006675539885
212,23.108204728061194
547,15.0
548,23.3
1039,0.0
250,0.0
323,876499.2917999647
360,23.3
361,0.0
386,0.0
399,0.0
664,1547199.451219023
1035,428047.31777938219
2,1, 8,21, 0, 5,45.00,60.00,SummerDesignDay
7,25.1
8,3.0
211,23.30000667022335
212,23.064231773629353
547,15.0
548,23.3
1039,0.0
250,0.0
323,862794.659999052
360,23.3
361,0.0
386,0.0
399,0.0
664,1527865.9633361584
1035,422469.2747402592
2,1, 8,21, 0, 5, 0.00,60.00,SummerDesignDay
612,0.0
2,1, 8,21, 0, 6, 0.00,15.00,SummerDesignDay
7,25.135500000000005
8,2.69079
211,23.300006697310143
212,23.03261483132281
547,15.0
548,23.3
1039,0.0
250,0.0
323,872803.4416964779
360,23.3
361,0.0
386,0.0
399,0.0
664,1549884.0432307004
1035,428337.6368886153
2,1, 8,21, 0, 6,15.00,30.00,SummerDesignDay
7,25.171000000000004
8,2.69079
211,23.30000669633017
212,23.0162279277688
547,15.0
548,23.3
1039,0.0
250,0.0
323,879483.7022378419
360,23.3
361,0.0
386,0.0
399,0.0
664,1564734.3940642628
1035,432383.7805574237
2,1, 8,21, 0, 6,30.00,45.00,SummerDesignDay
7,25.206500000000007
8,2.69079
211,23.300006701346509
212,23.01234076923231
547,15.0
548,23.3
1039,0.0
250,0.0
323,882771.5050519486
360,23.3
361,0.0
386,0.0
399,0.0
664,1572256.0548973988
1035,434569.3236019027
2,1, 8,21, 0, 6,45.00,60.00,SummerDesignDay
7,25.242000000000006
8,2.69079
211,23.30000671091243
212,23.016813022459023
547,15.0
548,23.3
1039,0.0
250,0.0
323,885623.852420431
360,23.3
361,0.0
386,0.0
399,0.0
664,1578155.2748554359
1035,436369.4895199927
2,1, 8,21, 0, 6, 0.00,60.00,SummerDesignDay
612,0.0
2,1, 8,21, 0, 7, 0.00,15.00,SummerDesignDay
7,25.36625
8,3.0
211,23.300006856526637
212,23.0849005554855
547,15.0
548,23.3
1039,0.0
250,0.0
323,1051144.054189166
360,23.3
361,0.0
386,0.0
399,0.0
664,1872445.4819710807
1035,514016.9078697619
2,1, 8,21, 0, 7,15.00,30.00,SummerDesignDay
7,25.490500000000006
8,3.0
211,23.300006724325919
212,23.303123709103713
547,15.0
548,23.3
1039,0.0
250,0.0
323,1237868.4534642467
360,23.3
361,0.0
386,0.0
399,0.0
664,2197416.8012675174
1035,598719.5941908003
2,1, 8,21, 0, 7,30.00,45.00,SummerDesignDay
7,25.614750000000006
8,3.0
211,23.300004094035985
212,23.64298311293406
547,15.0
548,23.3
1039,0.0
250,0.0
323,1412914.3839188626
360,23.3
361,0.0
386,0.0
399,0.0
664,2481907.536578226
1035,672903.0770202433
2,1, 8,21, 0, 7,45.00,60.00,SummerDesignDay
7,25.739000000000006
8,3.0
211,23.300071777128449
212,24.291642275047857
547,15.0
548,23.3
1039,0.0
250,0.0
323,1572386.1221772237
360,23.3
361,0.0
386,0.0
399,0.0
664,2726003.6223034777
1035,736745.6315682868
2,1, 8,21, 0, 7, 0.00,60.00,SummerDesignDay
612,0.0
2,1, 8,21, 0, 8, 0.00,15.00,SummerDesignDay
7,26.040750000000004
8,2.6493
211,23.300003599484258
212,24.917973978345964
547,15.0
548,23.3
1039,0.0
250,0.0
323,1726595.430191026
360,23.3
361,0.0
386,0.0
399,0.0
664,2946219.732009683
1035,797288.6268067826
2,1, 8,21, 0, 8,15.00,30.00,SummerDesignDay
7,26.342500000000006